* PRE_MLPOT:MONOMER_REPACK
*  DATE:     6/28/26      2: 2:28      CREATED BY USER: boittier
*
       460  EXT
         1         1  DCM       C              -2.4199423726       -1.6680676404        0.7816249695  CLST      1               1.0000000000
         2         1  DCM       H1             -3.3993079960       -2.1914741998        0.6982155575  CLST      1               1.0000000000
         3         1  DCM       H2             -2.4661594263       -0.6616425014        0.3213023023  CLST      1               1.0000000000
         4         1  DCM       CL1            -1.9956179821       -1.5001678559        2.5091478056  CLST      1               1.0000000000
         5         1  DCM       CL2            -1.1736988586       -2.6309913465       -0.0606170703  CLST      1               1.0000000000
         6         2  DCM       C               1.4131240034       -1.8762102408       -1.1952573555  CLST      2               1.0000000000
         7         2  DCM       H1              1.5268733695       -2.6617530137       -0.4186711869  CLST      2               1.0000000000
         8         2  DCM       H2              1.1729201654       -0.8949725543       -0.7342131371  CLST      2               1.0000000000
         9         2  DCM       CL1             2.9415042580       -1.7369819289       -2.1105048212  CLST      2               1.0000000000
        10         2  DCM       CL2             0.0899030026       -2.3420166113       -2.3023991612  CLST      2               1.0000000000
        11         3  DCM       C              -0.8396611076        1.1877317124        2.4343216049  CLST      3               1.0000000000
        12         3  DCM       H1             -1.1913293855        0.3395578136        1.8061974777  CLST      3               1.0000000000
        13         3  DCM       H2              0.0371154385        0.8876864010        3.0446463639  CLST      3               1.0000000000
        14         3  DCM       CL1            -0.3758369576        2.5500082346        1.3733282198  CLST      3               1.0000000000
        15         3  DCM       CL2            -2.1646778124        1.6934023586        3.5228410282  CLST      3               1.0000000000
        16         4  DCM       C               2.7628095559        0.5487778212        2.0068400886  CLST      4               1.0000000000
        17         4  DCM       H1              2.3547590073        0.0532755547        1.1005995881  CLST      4               1.0000000000
        18         4  DCM       H2              2.3782857646        0.0678862289        2.9303507869  CLST      4               1.0000000000
        19         4  DCM       CL1             4.5444546332        0.4317026227        1.9799937488  CLST      4               1.0000000000
        20         4  DCM       CL2             2.2744166436        2.2647515749        2.0045664216  CLST      4               1.0000000000
        21         5  DCM       C               1.0490366401       -0.8478457594        1.5546927230  CLST      5               1.0000000000
        22         5  DCM       H1              0.2834720399       -0.5023636163        0.8293647624  CLST      5               1.0000000000
        23         5  DCM       H2              0.8207733020       -0.4789100196        2.5770971575  CLST      5               1.0000000000
        24         5  DCM       CL1             1.0678382411       -2.6342076010        1.5696039866  CLST      5               1.0000000000
        25         5  DCM       CL2             2.6492909414       -0.2280107359        1.0549543691  CLST      5               1.0000000000
        26         6  DCM       C               0.0840330088        2.3986081735       -0.7566504559  CLST      6               1.0000000000
        27         6  DCM       H1              0.7016872624        1.6438624896       -0.2233755576  CLST      6               1.0000000000
        28         6  DCM       H2              0.3963710123        3.4292765962       -0.4905509311  CLST      6               1.0000000000
        29         6  DCM       CL1            -1.6294651118        2.1676809322       -0.3045819049  CLST      6               1.0000000000
        30         6  DCM       CL2             0.2803535515        2.1747524582       -2.5179088076  CLST      6               1.0000000000
        31         7  DCM       C               0.3031886203       -1.0629523729        1.0315564846  CLST      7               1.0000000000
        32         7  DCM       H1              0.5655975267       -1.5917218292        1.9731580374  CLST      7               1.0000000000
        33         7  DCM       H2              0.5990791204       -1.6610047844        0.1446023527  CLST      7               1.0000000000
        34         7  DCM       CL1            -1.4614269509       -0.7818891431        0.9845264092  CLST      7               1.0000000000
        35         7  DCM       CL2             1.1580370143        0.5021250770        0.9852509147  CLST      7               1.0000000000
        36         8  DCM       C              -2.2618912857       -0.0038984985       -1.2007154015  CLST      8               1.0000000000
        37         8  DCM       H1             -2.7910947789        0.8526648182       -1.6687816027  CLST      8               1.0000000000
        38         8  DCM       H2             -2.5521451010       -0.9621560218       -1.6842174120  CLST      8               1.0000000000
        39         8  DCM       CL1            -0.4983880402        0.2240263906       -1.3813630878  CLST      8               1.0000000000
        40         8  DCM       CL2            -2.6846514235       -0.0739457751        0.5328302263  CLST      8               1.0000000000
        41         9  DCM       C              -3.0625184539        1.3597774111        0.8211430878  CLST      9               1.0000000000
        42         9  DCM       H1             -3.8275440451        1.9965553840        0.3369913394  CLST      9               1.0000000000
        43         9  DCM       H2             -2.1007042502        1.9076959017        0.9336928345  CLST      9               1.0000000000
        44         9  DCM       CL1            -3.6498143473        0.8789994319        2.4384630178  CLST      9               1.0000000000
        45         9  DCM       CL2            -2.7923088492       -0.0902194879       -0.1861649079  CLST      9               1.0000000000
        46        10  DCM       C               1.1189988498        2.3664146645        1.3169026331  CLST      10              1.0000000000
        47        10  DCM       H1              2.1182578766        2.3809527025        0.8324847889  CLST      10              1.0000000000
        48        10  DCM       H2              0.4293941546        1.6699677494        0.7932365393  CLST      10              1.0000000000
        49        10  DCM       CL1             1.2999520914        1.8351133959        3.0132119666  CLST      10              1.0000000000
        50        10  DCM       CL2             0.4229235514        4.0126916353        1.2743913316  CLST      10              1.0000000000
        51        11  DCM       C               1.6861027448        2.6034709150       -2.7333073697  CLST      11              1.0000000000
        52        11  DCM       H1              2.5079349087        3.3070357543       -2.4849231854  CLST      11              1.0000000000
        53        11  DCM       H2              1.1324137229        2.9390166640       -3.6357708959  CLST      11              1.0000000000
        54        11  DCM       CL1             2.3823237428        0.9871847128       -3.0399835918  CLST      11              1.0000000000
        55        11  DCM       CL2             0.5573182745        2.5235545059       -1.3506924098  CLST      11              1.0000000000
        56        12  DCM       C               2.6347812148       -3.0643167465        0.3191659857  CLST      12              1.0000000000
        57        12  DCM       H1              1.7695731294       -2.3855851244        0.4723459389  CLST      12              1.0000000000
        58        12  DCM       H2              3.4117217682       -2.8999126047        1.0939129997  CLST      12              1.0000000000
        59        12  DCM       CL1             2.0715075819       -4.7568874893        0.4132625439  CLST      12              1.0000000000
        60        12  DCM       CL2             3.3465573209       -2.7475216012       -1.2876209583  CLST      12              1.0000000000
        61        13  DCM       C              -0.5820793470        2.4803659799        2.2703527776  CLST      13              1.0000000000
        62        13  DCM       H1             -0.1698197951        1.4762762476        2.0346059678  CLST      13              1.0000000000
        63        13  DCM       H2             -1.6538909773        2.4151498796        2.5536598363  CLST      13              1.0000000000
        64        13  DCM       CL1             0.3391296488        3.1808540988        3.6329139595  CLST      13              1.0000000000
        65        13  DCM       CL2            -0.4239915097        3.5267170152        0.8294958373  CLST      13              1.0000000000
        66        14  DCM       C              -2.0027532549       -3.6227840065        0.3905018974  CLST      14              1.0000000000
        67        14  DCM       H1             -0.8965400104       -3.5778832987        0.4864189618  CLST      14              1.0000000000
        68        14  DCM       H2             -2.3147277579       -3.5238401400       -0.6697830108  CLST      14              1.0000000000
        69        14  DCM       CL1            -2.7221828630       -2.2872202943        1.3362163629  CLST      14              1.0000000000
        70        14  DCM       CL2            -2.5814073788       -5.1924360193        1.0208330216  CLST      14              1.0000000000
        71        15  DCM       C               1.4992609427        2.9224775835        2.3142381194  CLST      15              1.0000000000
        72        15  DCM       H1              2.4149317146        3.3929850573        2.7282797137  CLST      15              1.0000000000
        73        15  DCM       H2              0.5882385030        3.3026234790        2.8234036533  CLST      15              1.0000000000
        74        15  DCM       CL1             1.3959727235        3.3011123476        0.5719644518  CLST      15              1.0000000000
        75        15  DCM       CL2             1.6033515229        1.1536433321        2.5469070618  CLST      15              1.0000000000
        76        16  DCM       C               1.5038271521       -0.4062160978       -0.5708105691  CLST      16              1.0000000000
        77        16  DCM       H1              2.2060499754       -0.5380903625       -1.4200299601  CLST      16              1.0000000000
        78        16  DCM       H2              1.1463663970       -1.3848414510       -0.1938172942  CLST      16              1.0000000000
        79        16  DCM       CL1             2.3454935862        0.4468923500        0.7549251472  CLST      16              1.0000000000
        80        16  DCM       CL2             0.1016793104        0.5524328260       -1.1253115121  CLST      16              1.0000000000
        81        17  DCM       C               0.4679757847        2.8955828684        1.7674647008  CLST      17              1.0000000000
        82        17  DCM       H1              0.8454514689        2.9648922460        2.8096304706  CLST      17              1.0000000000
        83        17  DCM       H2              0.0568598654        3.8685581404        1.4240390514  CLST      17              1.0000000000
        84        17  DCM       CL1             1.8087242946        2.4150794508        0.6881026963  CLST      17              1.0000000000
        85        17  DCM       CL2            -0.8241377207        1.6659655841        1.7012981879  CLST      17              1.0000000000
        86        18  DCM       C              -0.4406718888       -1.9516366043        2.3678702571  CLST      18              1.0000000000
        87        18  DCM       H1              0.2399630326       -2.6029643725        1.7816615687  CLST      18              1.0000000000
        88        18  DCM       H2              0.0982314772       -1.4583866163        3.2054442218  CLST      18              1.0000000000
        89        18  DCM       CL1            -1.1087370221       -0.6947810458        1.2879321184  CLST      18              1.0000000000
        90        18  DCM       CL2            -1.7689044339       -2.9445541854        3.0357550772  CLST      18              1.0000000000
        91        19  DCM       C              -0.7829573176        1.1106594490       -0.2919564262  CLST      19              1.0000000000
        92        19  DCM       H1             -1.4868921220        0.8274695973        0.5207254034  CLST      19              1.0000000000
        93        19  DCM       H2              0.2644227887        1.1371260546        0.0750704528  CLST      19              1.0000000000
        94        19  DCM       CL1            -0.9038582677       -0.0918644876       -1.6055033865  CLST      19              1.0000000000
        95        19  DCM       CL2            -1.2265742184        2.7274211138       -0.9116330317  CLST      19              1.0000000000
        96        20  DCM       C               1.1100290852       -0.5479569162        0.3323225798  CLST      20              1.0000000000
        97        20  DCM       H1              2.1893628245       -0.4521174252        0.5717971975  CLST      20              1.0000000000
        98        20  DCM       H2              0.4982030615        0.1122852236        0.9830494712  CLST      20              1.0000000000
        99        20  DCM       CL1             0.8434241102       -0.0846386271       -1.3744979339  CLST      20              1.0000000000
       100        20  DCM       CL2             0.6087203822       -2.2449847969        0.5881880685  CLST      20              1.0000000000
       101        21  DCM       C               2.2485890885       -1.5912757164        0.9051228285  CLST      21              1.0000000000
       102        21  DCM       H1              2.1449413473       -2.6955678710        0.8539355162  CLST      21              1.0000000000
       103        21  DCM       H2              2.8509113726       -1.2041133293        0.0559306549  CLST      21              1.0000000000
       104        21  DCM       CL1             0.6220263633       -0.8515525371        0.8483047668  CLST      21              1.0000000000
       105        21  DCM       CL2             3.0637976120       -1.1544885657        2.4342783013  CLST      21              1.0000000000
       106        22  DCM       C               1.8265537385        2.5707281274       -1.6053240414  CLST      22              1.0000000000
       107        22  DCM       H1              2.5255356330        2.6406444311       -2.4679376643  CLST      22              1.0000000000
       108        22  DCM       H2              1.6916881635        1.5176432374       -1.2896746116  CLST      22              1.0000000000
       109        22  DCM       CL1             0.2432849651        3.2442141651       -2.0861066063  CLST      22              1.0000000000
       110        22  DCM       CL2             2.4894920100        3.5060716304       -0.2346286555  CLST      22              1.0000000000
       111        23  DCM       C               1.9601549645       -1.8101519236       -0.4992919033  CLST      23              1.0000000000
       112        23  DCM       H1              1.9114602308       -1.5213614409       -1.5704109430  CLST      23              1.0000000000
       113        23  DCM       H2              2.2526335806       -0.9467732539        0.1352520272  CLST      23              1.0000000000
       114        23  DCM       CL1             0.3512633039       -2.3926359310        0.0185246126  CLST      23              1.0000000000
       115        23  DCM       CL2             3.1709826669       -3.1110524837       -0.3038648106  CLST      23              1.0000000000
       116        24  DCM       C              -0.9961825955       -3.0525669935       -1.6381003875  CLST      24              1.0000000000
       117        24  DCM       H1             -1.9289694872       -3.3811379023       -1.1299677929  CLST      24              1.0000000000
       118        24  DCM       H2             -0.1644164841       -2.9457141383       -0.9132365439  CLST      24              1.0000000000
       119        24  DCM       CL1            -0.5361195243       -4.2727626531       -2.8607080651  CLST      24              1.0000000000
       120        24  DCM       CL2            -1.2882583862       -1.4732909622       -2.4232670309  CLST      24              1.0000000000
       121        25  DCM       C              -2.6809804960        3.1003809001        0.3311304640  CLST      25              1.0000000000
       122        25  DCM       H1             -2.9273248196        2.7032558825        1.3381898722  CLST      25              1.0000000000
       123        25  DCM       H2             -3.1406155434        4.0982182411        0.1711913585  CLST      25              1.0000000000
       124        25  DCM       CL1            -0.9067311093        3.2472372422        0.1875942402  CLST      25              1.0000000000
       125        25  DCM       CL2            -3.2959108728        1.9705218864       -0.9102192870  CLST      25              1.0000000000
       126        26  DCM       C              -2.2425560431        2.2181713706       -0.6201648828  CLST      26              1.0000000000
       127        26  DCM       H1             -2.4707170929        3.2828754029       -0.8378623752  CLST      26              1.0000000000
       128        26  DCM       H2             -3.1495967803        1.6767842153       -0.2763153808  CLST      26              1.0000000000
       129        26  DCM       CL1            -1.6281364268        1.4409167178       -2.1081588690  CLST      26              1.0000000000
       130        26  DCM       CL2            -0.9993058680        2.1425189373        0.6616966669  CLST      26              1.0000000000
       131        27  DCM       C              -2.7699758231       -2.0468378189        1.8301419563  CLST      27              1.0000000000
       132        27  DCM       H1             -1.8784985679       -2.6664043191        1.5984481104  CLST      27              1.0000000000
       133        27  DCM       H2             -3.6802817144       -2.4543447818        1.3400381035  CLST      27              1.0000000000
       134        27  DCM       CL1            -3.0217212706       -2.0328144455        3.5980836916  CLST      27              1.0000000000
       135        27  DCM       CL2            -2.4902533180       -0.3802121328        1.2482984122  CLST      27              1.0000000000
       136        28  DCM       C              -1.4564916334       -2.7565163086        2.2438748053  CLST      28              1.0000000000
       137        28  DCM       H1             -2.2124485988       -1.9563522563        2.3871291199  CLST      28              1.0000000000
       138        28  DCM       H2             -0.4601050005       -2.4361456895        2.6168835755  CLST      28              1.0000000000
       139        28  DCM       CL1            -1.3358914087       -3.1263172147        0.4995527195  CLST      28              1.0000000000
       140        28  DCM       CL2            -1.9757335694       -4.2167902221        3.1359307383  CLST      28              1.0000000000
       141        29  DCM       C              -1.2391785865       -0.3729437831       -0.1161777185  CLST      29              1.0000000000
       142        29  DCM       H1             -0.6739119083        0.5605615064        0.0903030565  CLST      29              1.0000000000
       143        29  DCM       H2             -2.2081297240       -0.1507235599       -0.6105641815  CLST      29              1.0000000000
       144        29  DCM       CL1            -0.2647971852       -1.4193333327       -1.1893753107  CLST      29              1.0000000000
       145        29  DCM       CL2            -1.5578371970       -1.2173095273        1.4266337436  CLST      29              1.0000000000
       146        30  DCM       C               2.2238127534       -2.3419109250       -1.5722583099  CLST      30              1.0000000000
       147        30  DCM       H1              2.1982468662       -2.8710045100       -2.5458710396  CLST      30              1.0000000000
       148        30  DCM       H2              2.0706489006       -1.2498190228       -1.7052785390  CLST      30              1.0000000000
       149        30  DCM       CL1             0.9274555571       -2.9784271301       -0.5209675361  CLST      30              1.0000000000
       150        30  DCM       CL2             3.8135864482       -2.6029456661       -0.7999003337  CLST      30              1.0000000000
       151        31  DCM       C              -2.2352095353       -1.4779075624       -1.9169005716  CLST      31              1.0000000000
       152        31  DCM       H1             -2.5187152563       -1.4908814342       -0.8445418800  CLST      31              1.0000000000
       153        31  DCM       H2             -1.7225021760       -2.4201314316       -2.1981538234  CLST      31              1.0000000000
       154        31  DCM       CL1            -3.7145245664       -1.3024163803       -2.9108092992  CLST      31              1.0000000000
       155        31  DCM       CL2            -1.1353380213       -0.1009283766       -2.2136675477  CLST      31              1.0000000000
       156        32  DCM       C               2.1663503344        0.3763738233       -0.6868107435  CLST      32              1.0000000000
       157        32  DCM       H1              1.5632460969        1.2451289300       -0.3504574523  CLST      32              1.0000000000
       158        32  DCM       H2              3.2138534572        0.6754254593       -0.9050997112  CLST      32              1.0000000000
       159        32  DCM       CL1             2.1744162231       -0.8584118486        0.6039846663  CLST      32              1.0000000000
       160        32  DCM       CL2             1.4340754139       -0.3028133233       -2.1692067934  CLST      32              1.0000000000
       161        33  DCM       C               3.0082148397        0.6911853761       -1.8737142349  CLST      33              1.0000000000
       162        33  DCM       H1              4.0404242054        0.8180054048       -1.4828329977  CLST      33              1.0000000000
       163        33  DCM       H2              2.9516794321        0.9559734963       -2.9491373561  CLST      33              1.0000000000
       164        33  DCM       CL1             2.5146888804       -1.0155386098       -1.6669857960  CLST      33              1.0000000000
       165        33  DCM       CL2             1.9057864873        1.7566498763       -0.9523941203  CLST      33              1.0000000000
       166        34  DCM       C               2.8385861047       -0.6118347765        1.2148389976  CLST      34              1.0000000000
       167        34  DCM       H1              3.5020169210       -1.5017935041        1.2494063538  CLST      34              1.0000000000
       168        34  DCM       H2              1.7721192988       -0.9071278549        1.3073239062  CLST      34              1.0000000000
       169        34  DCM       CL1             3.2620433472        0.4869062798        2.5604943925  CLST      34              1.0000000000
       170        34  DCM       CL2             3.0745076791        0.2266197746       -0.3455135323  CLST      34              1.0000000000
       171        35  DCM       C              -2.5359789175       -1.0675124499       -1.2505328181  CLST      35              1.0000000000
       172        35  DCM       H1             -2.8151960720       -2.1177921174       -1.0232393840  CLST      35              1.0000000000
       173        35  DCM       H2             -3.1438297725       -0.3549762738       -0.6521170755  CLST      35              1.0000000000
       174        35  DCM       CL1            -0.8072451571       -0.8337577966       -0.8611453764  CLST      35              1.0000000000
       175        35  DCM       CL2            -2.8144517996       -0.7566688832       -2.9887318081  CLST      35              1.0000000000
       176        36  DCM       C              -1.9777098578       -3.0306227359       -1.3411660229  CLST      36              1.0000000000
       177        36  DCM       H1             -2.3950050878       -2.7819466483       -0.3370328562  CLST      36              1.0000000000
       178        36  DCM       H2             -2.7040460557       -3.6121129025       -1.9403425344  CLST      36              1.0000000000
       179        36  DCM       CL1            -1.5922196620       -1.5111840595       -2.1997602535  CLST      36              1.0000000000
       180        36  DCM       CL2            -0.4917632098       -4.0003945690       -1.1240048720  CLST      36              1.0000000000
       181        37  DCM       C               2.6515289290        2.5405483444        1.7112792941  CLST      37              1.0000000000
       182        37  DCM       H1              2.2273181790        3.5194806729        2.0247180514  CLST      37              1.0000000000
       183        37  DCM       H2              3.2507738025        2.6441425748        0.7835487381  CLST      37              1.0000000000
       184        37  DCM       CL1             1.3111252837        1.3964060532        1.4139235451  CLST      37              1.0000000000
       185        37  DCM       CL2             3.7011678155        1.9217269881        3.0185575830  CLST      37              1.0000000000
       186        38  DCM       C              -0.6412767906        1.1037160452       -1.9971615748  CLST      38              1.0000000000
       187        38  DCM       H1             -0.1333848254        1.8253197749       -2.6690978464  CLST      38              1.0000000000
       188        38  DCM       H2              0.0430529663        0.2794105383       -1.7076609292  CLST      38              1.0000000000
       189        38  DCM       CL1            -1.1773994294        1.9583212628       -0.5219548342  CLST      38              1.0000000000
       190        38  DCM       CL2            -2.0560838557        0.4202899409       -2.8472427967  CLST      38              1.0000000000
       191        39  DCM       C               2.5060454193       -0.8647276332        2.6131002412  CLST      39              1.0000000000
       192        39  DCM       H1              3.0722708875        0.0895782262        2.6513485576  CLST      39              1.0000000000
       193        39  DCM       H2              2.5477754567       -1.3139331170        1.6000300688  CLST      39              1.0000000000
       194        39  DCM       CL1             3.2194250336       -2.0073003280        3.7869052801  CLST      39              1.0000000000
       195        39  DCM       CL2             0.8004763147       -0.5482014073        3.0438233092  CLST      39              1.0000000000
       196        40  DCM       C               0.9920762246       -0.0348712211       -1.8679508246  CLST      40              1.0000000000
       197        40  DCM       H1              2.0563182922       -0.1336376395       -1.5718148491  CLST      40              1.0000000000
       198        40  DCM       H2              0.3469799517       -0.7244814133       -1.2837044721  CLST      40              1.0000000000
       199        40  DCM       CL1             0.4647569190        1.6425384824       -1.5613951491  CLST      40              1.0000000000
       200        40  DCM       CL2             0.8362272603       -0.4086436383       -3.6097381617  CLST      40              1.0000000000
       201        41  DCM       C              -2.4452873036       -1.6663158855        2.0632379158  CLST      41              1.0000000000
       202        41  DCM       H1             -2.5712133349       -1.3803587233        0.9970279830  CLST      41              1.0000000000
       203        41  DCM       H2             -2.1178805947       -2.7226383322        2.1574240188  CLST      41              1.0000000000
       204        41  DCM       CL1            -1.2147297943       -0.6026971734        2.8048626932  CLST      41              1.0000000000
       205        41  DCM       CL2            -4.0095247039       -1.4700500225        2.9018313852  CLST      41              1.0000000000
       206        42  DCM       C              -2.6891601712       -0.7834843376        2.7441957416  CLST      42              1.0000000000
       207        42  DCM       H1             -3.4769402094       -0.9380553596        1.9777338965  CLST      42              1.0000000000
       208        42  DCM       H2             -2.8518719897       -1.4456677586        3.6203972321  CLST      42              1.0000000000
       209        42  DCM       CL1            -2.7293461180        0.9171400573        3.2915859612  CLST      42              1.0000000000
       210        42  DCM       CL2            -1.0950297375       -1.1539419265        2.0241399531  CLST      42              1.0000000000
       211        43  DCM       C              -3.3499286545        1.0040740203       -0.7251389104  CLST      43              1.0000000000
       212        43  DCM       H1             -3.4001223436        1.9494487554       -0.1437263211  CLST      43              1.0000000000
       213        43  DCM       H2             -4.3312615329        0.7672853646       -1.1871703612  CLST      43              1.0000000000
       214        43  DCM       CL1            -2.1277414056        1.1793279767       -2.0166894409  CLST      43              1.0000000000
       215        43  DCM       CL2            -2.8866557537       -0.3322481394        0.3667204804  CLST      43              1.0000000000
       216        44  DCM       C              -0.1257267461       -0.5532612192       -1.1489439329  CLST      44              1.0000000000
       217        44  DCM       H1             -1.1222471813       -0.0683710860       -1.0881127696  CLST      44              1.0000000000
       218        44  DCM       H2              0.2651587335       -0.7909704514       -0.1365957153  CLST      44              1.0000000000
       219        44  DCM       CL1            -0.2734935349       -2.0668625326       -2.0843311306  CLST      44              1.0000000000
       220        44  DCM       CL2             1.0154974343        0.5513114751       -1.9674723412  CLST      44              1.0000000000
       221        45  DCM       C              -0.1531562308        2.1821864979       -2.2365967818  CLST      45              1.0000000000
       222        45  DCM       H1              0.3045581265        2.2578649886       -1.2278938904  CLST      45              1.0000000000
       223        45  DCM       H2             -0.1266998736        1.1353071462       -2.6072004784  CLST      45              1.0000000000
       224        45  DCM       CL1            -1.8539598971        2.7278037077       -2.1460748320  CLST      45              1.0000000000
       225        45  DCM       CL2             0.7576405491        3.2241090127       -3.3680633540  CLST      45              1.0000000000
       226        46  DCM       C              -0.5988240551       -0.8859874081       -1.4121879989  CLST      46              1.0000000000
       227        46  DCM       H1             -1.6135508018       -1.1928640450       -1.7519175059  CLST      46              1.0000000000
       228        46  DCM       H2              0.1693453848       -1.6199644789       -1.7283001830  CLST      46              1.0000000000
       229        46  DCM       CL1            -0.2092704323        0.7079222684       -2.1218968553  CLST      46              1.0000000000
       230        46  DCM       CL2            -0.5961189867       -0.7761462190        0.3718035885  CLST      46              1.0000000000
       231        47  DCM       C               3.1054239569        1.0132017680        0.1563499324  CLST      47              1.0000000000
       232        47  DCM       H1              3.1709319682        2.0428021705       -0.2518328339  CLST      47              1.0000000000
       233        47  DCM       H2              3.1913271485        0.2556172042       -0.6527978366  CLST      47              1.0000000000
       234        47  DCM       CL1             4.4346537344        0.7662393729        1.3255452721  CLST      47              1.0000000000
       235        47  DCM       CL2             1.5307577745        0.8098529135        0.9791035167  CLST      47              1.0000000000
       236        48  DCM       C               0.2844857037        0.3647059285       -4.6140728563  CLST      48              1.0000000000
       237        48  DCM       H1              0.2222491506       -0.3857314031       -5.4292099843  CLST      48              1.0000000000
       238        48  DCM       H2              0.9907811614        0.0336231196       -3.8231139758  CLST      48              1.0000000000
       239        48  DCM       CL1             0.8586569296        1.9147793974       -5.2911430590  CLST      48              1.0000000000
       240        48  DCM       CL2            -1.3375851965        0.5779240628       -3.8955780417  CLST      48              1.0000000000
       241        49  DCM       C               2.5876832245        0.7332755059        2.6370183640  CLST      49              1.0000000000
       242        49  DCM       H1              2.5560022232       -0.2928403596        2.2100806182  CLST      49              1.0000000000
       243        49  DCM       H2              2.9173789403        0.7190538300        3.6955291177  CLST      49              1.0000000000
       244        49  DCM       CL1             3.7336048657        1.7195192070        1.6832811873  CLST      49              1.0000000000
       245        49  DCM       CL2             0.9514730761        1.4475268070        2.5472017833  CLST      49              1.0000000000
       246        50  DCM       C              -1.7926473951        1.4811272682        2.0986955410  CLST      50              1.0000000000
       247        50  DCM       H1             -2.6000191209        2.1351024092        2.4893419791  CLST      50              1.0000000000
       248        50  DCM       H2             -1.6582865128        0.5851799642        2.7410655780  CLST      50              1.0000000000
       249        50  DCM       CL1            -2.2224223279        0.9523408938        0.4476359767  CLST      50              1.0000000000
       250        50  DCM       CL2            -0.2603918938        2.3994515562        2.0584959119  CLST      50              1.0000000000
       251        51  DCM       C               0.8234344709        1.2117892851        3.1221393993  CLST      51              1.0000000000
       252        51  DCM       H1              0.0383296680        1.4996128120        2.3932327066  CLST      51              1.0000000000
       253        51  DCM       H2              1.8366196612        1.3946958397        2.7055206425  CLST      51              1.0000000000
       254        51  DCM       CL1             0.6223663585        2.1803637660        4.6099883426  CLST      51              1.0000000000
       255        51  DCM       CL2             0.6544540594       -0.5263303676        3.5011332711  CLST      51              1.0000000000
       256        52  DCM       C              -1.7219906509        0.1491317578       -1.8486209660  CLST      52              1.0000000000
       257        52  DCM       H1             -0.8887323126        0.7302573354       -1.4004156588  CLST      52              1.0000000000
       258        52  DCM       H2             -2.4300066416        0.8151633809       -2.3840630767  CLST      52              1.0000000000
       259        52  DCM       CL1            -1.0484747020       -1.0337627605       -3.0076122940  CLST      52              1.0000000000
       260        52  DCM       CL2            -2.5992134747       -0.7068200932       -0.5470122030  CLST      52              1.0000000000
       261        53  DCM       C               1.4385585198        0.8739204142        1.9183090987  CLST      53              1.0000000000
       262        53  DCM       H1              1.0229211008        1.5681134243        1.1567131157  CLST      53              1.0000000000
       263        53  DCM       H2              2.5390665807        0.7814465148        1.8097484051  CLST      53              1.0000000000
       264        53  DCM       CL1             1.0589036562        1.4952123403        3.5490114689  CLST      53              1.0000000000
       265        53  DCM       CL2             0.6920563611       -0.7338003712        1.7064908206  CLST      53              1.0000000000
       266        54  DCM       C              -2.3264666241       -1.9511998362       -0.7411196921  CLST      54              1.0000000000
       267        54  DCM       H1             -1.9880489264       -1.3807866076        0.1499071505  CLST      54              1.0000000000
       268        54  DCM       H2             -3.2282152402       -1.4863516315       -1.1929494272  CLST      54              1.0000000000
       269        54  DCM       CL1            -1.0159091855       -1.9699089547       -1.9555340291  CLST      54              1.0000000000
       270        54  DCM       CL2            -2.7165845017       -3.6239797212       -0.2478601729  CLST      54              1.0000000000
       271        55  DCM       C               0.0355057744       -1.9652969841        0.3467695000  CLST      55              1.0000000000
       272        55  DCM       H1              1.1100443283       -2.0098645109        0.0685104491  CLST      55              1.0000000000
       273        55  DCM       H2             -0.0951558621       -1.5420207691        1.3644947858  CLST      55              1.0000000000
       274        55  DCM       CL1            -0.8254633425       -0.9263401931       -0.8253433325  CLST      55              1.0000000000
       275        55  DCM       CL2            -0.6430277228       -3.6181561697        0.3100996383  CLST      55              1.0000000000
       276        56  DCM       C               1.2443713377        0.3568118848        1.3835473221  CLST      56              1.0000000000
       277        56  DCM       H1              1.4772352036       -0.0400125419        2.3940920018  CLST      56              1.0000000000
       278        56  DCM       H2              0.9102517650        1.4136727582        1.4433801154  CLST      56              1.0000000000
       279        56  DCM       CL1             2.7161503193        0.2655451476        0.3737523821  CLST      56              1.0000000000
       280        56  DCM       CL2            -0.0585287747       -0.6278721025        0.6550161254  CLST      56              1.0000000000
       281        57  DCM       C               1.6829121240        2.8660675835        2.6604250271  CLST      57              1.0000000000
       282        57  DCM       H1              1.4700284751        3.9518467796        2.5789418495  CLST      57              1.0000000000
       283        57  DCM       H2              0.9158148923        2.2678881656        2.1256525212  CLST      57              1.0000000000
       284        57  DCM       CL1             3.2875807391        2.5344382128        1.9439561772  CLST      57              1.0000000000
       285        57  DCM       CL2             1.6862543701        2.4080354133        4.3891535831  CLST      57              1.0000000000
       286        58  DCM       C              -1.1898675502        1.5651458249       -2.5374425339  CLST      58              1.0000000000
       287        58  DCM       H1             -2.2917041486        1.6965394076       -2.5185302352  CLST      58              1.0000000000
       288        58  DCM       H2             -0.6722631243        2.5374900085       -2.4059701121  CLST      58              1.0000000000
       289        58  DCM       CL1            -0.7144417127        0.4632110061       -1.2137741675  CLST      58              1.0000000000
       290        58  DCM       CL2            -0.7096875388        0.8591688260       -4.1059200940  CLST      58              1.0000000000
       291        59  DCM       C               3.1403131429       -1.4931945745       -1.9027211390  CLST      59              1.0000000000
       292        59  DCM       H1              3.9925451989       -1.0350486142       -2.4474297762  CLST      59              1.0000000000
       293        59  DCM       H2              2.7344994009       -0.7963870087       -1.1392144608  CLST      59              1.0000000000
       294        59  DCM       CL1             1.8502012306       -1.8892305971       -3.0751346780  CLST      59              1.0000000000
       295        59  DCM       CL2             3.7033460635       -2.9829177662       -1.0894590497  CLST      59              1.0000000000
       296        60  DCM       C               2.6789123459       -1.9804439076        2.1978212590  CLST      60              1.0000000000
       297        60  DCM       H1              2.1923591416       -1.8105136160        3.1783495429  CLST      60              1.0000000000
       298        60  DCM       H2              3.5754675352       -2.6323309465        2.3019482727  CLST      60              1.0000000000
       299        60  DCM       CL1             1.5137690726       -2.7730236153        1.0956670648  CLST      60              1.0000000000
       300        60  DCM       CL2             3.1861783139       -0.4049165702        1.5208979477  CLST      60              1.0000000000
       301        61  DCM       C               0.3457405384       -3.3531225990        0.2102036597  CLST      61              1.0000000000
       302        61  DCM       H1              0.4272642144       -4.3354348070       -0.2996022679  CLST      61              1.0000000000
       303        61  DCM       H2             -0.7080440533       -3.0011940480        0.2340826720  CLST      61              1.0000000000
       304        61  DCM       CL1             0.9431119114       -3.5146721215        1.8888227507  CLST      61              1.0000000000
       305        61  DCM       CL2             1.3349338212       -2.1555909553       -0.6758510245  CLST      61              1.0000000000
       306        62  DCM       C               2.7230451938        0.2418100780       -1.9416010840  CLST      62              1.0000000000
       307        62  DCM       H1              3.0938494186        1.2764490353       -1.7862236265  CLST      62              1.0000000000
       308        62  DCM       H2              2.3064931453        0.1178293525       -2.9631456504  CLST      62              1.0000000000
       309        62  DCM       CL1             4.0841886710       -0.8975129859       -1.7245080369  CLST      62              1.0000000000
       310        62  DCM       CL2             1.4433021930       -0.0987982062       -0.7396900510  CLST      62              1.0000000000
       311        63  DCM       C               0.6993712139       -1.7914721292       -1.1346176598  CLST      63              1.0000000000
       312        63  DCM       H1              1.1916520862       -0.8026300617       -1.0216217293  CLST      63              1.0000000000
       313        63  DCM       H2             -0.4030424014       -1.7012067850       -1.0441283913  CLST      63              1.0000000000
       314        63  DCM       CL1             1.0964412436       -2.4555454320       -2.7454994473  CLST      63              1.0000000000
       315        63  DCM       CL2             1.2985272204       -2.8900525690        0.1414321282  CLST      63              1.0000000000
       316        64  DCM       C              -0.2583571840        3.1264249638       -0.7978273586  CLST      64              1.0000000000
       317        64  DCM       H1              0.3950628724        2.3280989301       -0.3865610612  CLST      64              1.0000000000
       318        64  DCM       H2             -1.1088728820        2.6927544072       -1.3652130020  CLST      64              1.0000000000
       319        64  DCM       CL1            -0.9006781028        4.1070946890        0.5523334849  CLST      64              1.0000000000
       320        64  DCM       CL2             0.7058710477        4.1599608840       -1.8929598588  CLST      64              1.0000000000
       321        65  DCM       C              -1.6956257154        2.0370404318       -2.2397681173  CLST      65              1.0000000000
       322        65  DCM       H1             -2.7813492092        2.0037619766       -2.0155545682  CLST      65              1.0000000000
       323        65  DCM       H2             -1.3552158745        3.0842882289       -2.3620060924  CLST      65              1.0000000000
       324        65  DCM       CL1            -0.7969073682        1.2821197491       -0.8973074297  CLST      65              1.0000000000
       325        65  DCM       CL2            -1.3832751547        1.1353234412       -3.7472023307  CLST      65              1.0000000000
       326        66  DCM       C               0.0490918097        0.2843825773        0.7321288257  CLST      66              1.0000000000
       327        66  DCM       H1              0.4456933072       -0.7490938443        0.6558742119  CLST      66              1.0000000000
       328        66  DCM       H2             -1.0583473776        0.2833054903        0.7942279535  CLST      66              1.0000000000
       329        66  DCM       CL1             0.7125725494        1.0547171088        2.1992692837  CLST      66              1.0000000000
       330        66  DCM       CL2             0.5475152509        1.1990671616       -0.7180713751  CLST      66              1.0000000000
       331        67  DCM       C              -2.2725680884        0.4763394355       -2.1945538946  CLST      67              1.0000000000
       332        67  DCM       H1             -2.6554262791        0.8185259445       -3.1793688934  CLST      67              1.0000000000
       333        67  DCM       H2             -2.0565417031        1.3398705618       -1.5311782335  CLST      67              1.0000000000
       334        67  DCM       CL1            -3.5093396524       -0.5562786918       -1.4215911794  CLST      67              1.0000000000
       335        67  DCM       CL2            -0.7672871578       -0.4560388480       -2.4420587921  CLST      67              1.0000000000
       336        68  DCM       C              -0.2108581088        1.0463667239        1.6173445933  CLST      68              1.0000000000
       337        68  DCM       H1             -0.8419468031        0.1683504433        1.8480638938  CLST      68              1.0000000000
       338        68  DCM       H2              0.5564239376        1.2089461866        2.4117130565  CLST      68              1.0000000000
       339        68  DCM       CL1             0.6193805924        0.7827599315        0.0557847545  CLST      68              1.0000000000
       340        68  DCM       CL2            -1.2445958731        2.4993533358        1.5116411572  CLST      68              1.0000000000
       341        69  DCM       C               1.0160496685       -2.5502800374        1.9279804762  CLST      69              1.0000000000
       342        69  DCM       H1              0.1484077904       -2.3144430162        2.5799614711  CLST      69              1.0000000000
       343        69  DCM       H2              0.7518683186       -3.3170849161        1.1696373828  CLST      69              1.0000000000
       344        69  DCM       CL1             1.5348770320       -1.0621417042        1.0902385480  CLST      69              1.0000000000
       345        69  DCM       CL2             2.3530495058       -3.1710865150        2.9351963952  CLST      69              1.0000000000
       346        70  DCM       C              -1.6143926971       -0.7835049960       -1.4471899689  CLST      70              1.0000000000
       347        70  DCM       H1             -2.0569919353       -1.1192564641       -2.4098791833  CLST      70              1.0000000000
       348        70  DCM       H2             -1.8695053307       -1.4826473500       -0.6241005088  CLST      70              1.0000000000
       349        70  DCM       CL1             0.1623037585       -0.7150158629       -1.6243939843  CLST      70              1.0000000000
       350        70  DCM       CL2            -2.2524941368        0.8381394120       -1.0507957444  CLST      70              1.0000000000
       351        71  DCM       C              -0.1465590710       -0.9876520403        3.3780061010  CLST      71              1.0000000000
       352        71  DCM       H1              0.2373650524       -1.6262040870        2.5543137246  CLST      71              1.0000000000
       353        71  DCM       H2             -0.7010317497       -1.5937680065        4.1245355447  CLST      71              1.0000000000
       354        71  DCM       CL1             1.2368444186       -0.1927162004        4.1822629270  CLST      71              1.0000000000
       355        71  DCM       CL2            -1.2427682463        0.2461404430        2.6919540093  CLST      71              1.0000000000
       356        72  DCM       C               1.4914351787        1.9818510458       -2.8877396866  CLST      72              1.0000000000
       357        72  DCM       H1              1.9345081425        2.3944710184       -1.9566369735  CLST      72              1.0000000000
       358        72  DCM       H2              0.3876913497        2.1031907657       -2.8925940623  CLST      72              1.0000000000
       359        72  DCM       CL1             2.1783355198        2.8432307558       -4.2948208926  CLST      72              1.0000000000
       360        72  DCM       CL2             1.8831473223        0.2422712411       -2.9913273633  CLST      72              1.0000000000
       361        73  DCM       C               0.1367556949       -1.6897165452        1.2471699061  CLST      73              1.0000000000
       362        73  DCM       H1              0.7976848529       -0.8044978643        1.3404830334  CLST      73              1.0000000000
       363        73  DCM       H2             -0.8572660751       -1.4033447473        0.8414521994  CLST      73              1.0000000000
       364        73  DCM       CL1             0.9017236675       -2.8727541942        0.1475249285  CLST      73              1.0000000000
       365        73  DCM       CL2            -0.0803213183       -2.4178181014        2.8628634067  CLST      73              1.0000000000
       366        74  DCM       C               0.3675019896       -1.6954491024       -3.1694421229  CLST      74              1.0000000000
       367        74  DCM       H1             -0.6278212191       -1.4838842332       -3.6151339937  CLST      74              1.0000000000
       368        74  DCM       H2              0.4619259596       -2.7642781602       -2.8840917335  CLST      74              1.0000000000
       369        74  DCM       CL1             1.6339457826       -1.3029922922       -4.3675902352  CLST      74              1.0000000000
       370        74  DCM       CL2             0.5765132217       -0.6834655745       -1.7108897744  CLST      74              1.0000000000
       371        75  DCM       C               2.9208385638        2.0878362432       -2.4303477432  CLST      75              1.0000000000
       372        75  DCM       H1              2.3900919205        1.1215400801       -2.5628409591  CLST      75              1.0000000000
       373        75  DCM       H2              4.0125037763        1.9679140964       -2.5888506450  CLST      75              1.0000000000
       374        75  DCM       CL1             2.6339186487        2.6994259477       -0.7775566775  CLST      75              1.0000000000
       375        75  DCM       CL2             2.2895619825        3.2677288902       -3.6107948375  CLST      75              1.0000000000
       376        76  DCM       C              -0.4413468337       -0.3120385073        1.8585983342  CLST      76              1.0000000000
       377        76  DCM       H1              0.5344674832       -0.5206965030        1.3717515736  CLST      76              1.0000000000
       378        76  DCM       H2             -1.0620986403        0.3601504826        1.2314759612  CLST      76              1.0000000000
       379        76  DCM       CL1            -1.3061167519       -1.8583492738        2.0959112356  CLST      76              1.0000000000
       380        76  DCM       CL2            -0.1386981608        0.4692524664        3.4368813724  CLST      76              1.0000000000
       381        77  DCM       C              -2.5818748580        3.5468098112        0.1412010518  CLST      77              1.0000000000
       382        77  DCM       H1             -3.4852052224        2.9642410590        0.4221338315  CLST      77              1.0000000000
       383        77  DCM       H2             -2.7008480758        4.0127691218       -0.8595522909  CLST      77              1.0000000000
       384        77  DCM       CL1            -2.3223724479        4.8335536138        1.3544059381  CLST      77              1.0000000000
       385        77  DCM       CL2            -1.1693265326        2.4515894106        0.1076336938  CLST      77              1.0000000000
       386        78  DCM       C               2.5155305782        1.8194656868       -1.1763642974  CLST      78              1.0000000000
       387        78  DCM       H1              2.0193917427        1.7573013659       -0.1853105200  CLST      78              1.0000000000
       388        78  DCM       H2              2.1136796046        1.0523980157       -1.8722603574  CLST      78              1.0000000000
       389        78  DCM       CL1             2.2264744252        3.4419525332       -1.8703553691  CLST      78              1.0000000000
       390        78  DCM       CL2             4.2709250657        1.5518236586       -0.9684337082  CLST      78              1.0000000000
       391        79  DCM       C              -3.0024393895        0.4973954523        0.8388003784  CLST      79              1.0000000000
       392        79  DCM       H1             -3.9716177591        0.5916932726        0.3052676753  CLST      79              1.0000000000
       393        79  DCM       H2             -2.1789286441        0.2605309988        0.1315508085  CLST      79              1.0000000000
       394        79  DCM       CL1            -2.6382450552        2.0420790429        1.6613744617  CLST      79              1.0000000000
       395        79  DCM       CL2            -3.1283970712       -0.8141506907        2.0461703307  CLST      79              1.0000000000
       396        80  DCM       C              -2.4425371860        1.6729127957       -1.8048282392  CLST      80              1.0000000000
       397        80  DCM       H1             -2.0117813723        0.6571127133       -1.6754607770  CLST      80              1.0000000000
       398        80  DCM       H2             -3.5522206649        1.6432223011       -1.7620014748  CLST      80              1.0000000000
       399        80  DCM       CL1            -1.8376845659        2.7334225305       -0.4988809632  CLST      80              1.0000000000
       400        80  DCM       CL2            -1.9384134644        2.3183467262       -3.3941426428  CLST      80              1.0000000000
       401        81  DCM       C              -1.6482684383        2.7749690006        2.3525876430  CLST      81              1.0000000000
       402        81  DCM       H1             -2.7160498735        3.0375945336        2.1914745549  CLST      81              1.0000000000
       403        81  DCM       H2             -1.0824487508        2.7981107079        1.3985391898  CLST      81              1.0000000000
       404        81  DCM       CL1            -0.9261005375        3.9571504308        3.4827337662  CLST      81              1.0000000000
       405        81  DCM       CL2            -1.5520647322        1.1302704942        3.0484724283  CLST      81              1.0000000000
       406        82  DCM       C               0.4490378118       -2.2739214106       -0.6127269678  CLST      82              1.0000000000
       407        82  DCM       H1             -0.5983245615       -2.3056517460       -0.9764234282  CLST      82              1.0000000000
       408        82  DCM       H2              0.8963410719       -1.2732280451       -0.7879244815  CLST      82              1.0000000000
       409        82  DCM       CL1             0.4698894551       -2.6250881873        1.1390793084  CLST      82              1.0000000000
       410        82  DCM       CL2             1.4134170461       -3.4965376004       -1.4886978490  CLST      82              1.0000000000
       411        83  DCM       C               0.7014671653       -3.1578592799       -0.8843887002  CLST      83              1.0000000000
       412        83  DCM       H1              1.7567743799       -3.1207883542       -1.2430745472  CLST      83              1.0000000000
       413        83  DCM       H2             -0.0002012488       -3.3173722567       -1.7237326311  CLST      83              1.0000000000
       414        83  DCM       CL1             0.5286421191       -4.4914001277        0.2856456966  CLST      83              1.0000000000
       415        83  DCM       CL2             0.3145404744       -1.6152310277       -0.0782544729  CLST      83              1.0000000000
       416        84  DCM       C              -2.8446949513       -2.4818462378       -2.0686370975  CLST      84              1.0000000000
       417        84  DCM       H1             -3.5658933251       -3.0332511581       -2.7085544787  CLST      84              1.0000000000
       418        84  DCM       H2             -3.3629996590       -1.9607621045       -1.2366010701  CLST      84              1.0000000000
       419        84  DCM       CL1            -1.6674342050       -3.6413376588       -1.3854777439  CLST      84              1.0000000000
       420        84  DCM       CL2            -1.9904910531       -1.2720688304       -3.0675473936  CLST      84              1.0000000000
       421        85  DCM       C              -2.7549018961        0.0138566192       -2.5448297621  CLST      85              1.0000000000
       422        85  DCM       H1             -3.8272814100        0.0131782802       -2.8336412807  CLST      85              1.0000000000
       423        85  DCM       H2             -2.3206922783        1.0334425794       -2.6204952499  CLST      85              1.0000000000
       424        85  DCM       CL1            -2.6067965293       -0.5574269102       -0.8569877211  CLST      85              1.0000000000
       425        85  DCM       CL2            -1.8581589134       -1.0821255836       -3.6364831894  CLST      85              1.0000000000
       426        86  DCM       C               1.1366708825        0.0307461233        0.9115996194  CLST      86              1.0000000000
       427        86  DCM       H1              0.1515178926       -0.4206582829        1.1558764615  CLST      86              1.0000000000
       428        86  DCM       H2              1.1956110576        0.2983572307       -0.1634147722  CLST      86              1.0000000000
       429        86  DCM       CL1             1.3589007658        1.5120412498        1.8872775812  CLST      86              1.0000000000
       430        86  DCM       CL2             2.4269589686       -1.1494564718        1.2824957707  CLST      86              1.0000000000
       431        87  DCM       C               1.6163155389        1.8937704518       -0.3835606193  CLST      87              1.0000000000
       432        87  DCM       H1              0.6784332608        2.4809172788       -0.4565919654  CLST      87              1.0000000000
       433        87  DCM       H2              2.4081617497        2.4745132049        0.1357734575  CLST      87              1.0000000000
       434        87  DCM       CL1             1.2964931536        0.3961620708        0.5380997120  CLST      87              1.0000000000
       435        87  DCM       CL2             2.1737246140        1.4884579531       -2.0327283518  CLST      87              1.0000000000
       436        88  DCM       C              -3.1098206702       -0.4361384442        2.1493230674  CLST      88              1.0000000000
       437        88  DCM       H1             -4.1057407725       -0.7776862111        1.8009418310  CLST      88              1.0000000000
       438        88  DCM       H2             -2.3036579020       -1.0582961788        1.7109915192  CLST      88              1.0000000000
       439        88  DCM       CL1            -2.8642656804        1.2602486151        1.6446618222  CLST      88              1.0000000000
       440        88  DCM       CL2            -3.0477253437       -0.5632341485        3.9307282213  CLST      88              1.0000000000
       441        89  DCM       C               2.2130246808        0.4117353223       -2.5642480209  CLST      89              1.0000000000
       442        89  DCM       H1              2.8778516793        1.2817646388       -2.3584749578  CLST      89              1.0000000000
       443        89  DCM       H2              2.0979729580        0.2474792783       -3.6535880094  CLST      89              1.0000000000
       444        89  DCM       CL1             2.9280333404       -1.0504195462       -1.8256277044  CLST      89              1.0000000000
       445        89  DCM       CL2             0.6060212065        0.7298673430       -1.8474065248  CLST      89              1.0000000000
       446        90  DCM       C              -2.0077914948        0.0827501358        2.8399074166  CLST      90              1.0000000000
       447        90  DCM       H1             -2.7057647970        0.5509507647        3.5636054236  CLST      90              1.0000000000
       448        90  DCM       H2             -0.9594578405        0.1432982966        3.2034490624  CLST      90              1.0000000000
       449        90  DCM       CL1            -2.4546637194       -1.6339729114        2.6252654731  CLST      90              1.0000000000
       450        90  DCM       CL2            -2.1340042470        0.9406725867        1.2782522648  CLST      90              1.0000000000
       451        91  DCM       C              -1.2310299105        0.7357692688        1.2172095431  CLST      91              1.0000000000
       452        91  DCM       H1             -0.9902770518        1.7032387548        0.7307205972  CLST      91              1.0000000000
       453        91  DCM       H2             -2.0086394430        0.8607377220        1.9987996828  CLST      91              1.0000000000
       454        91  DCM       CL1            -1.8360653818       -0.4007615441       -0.0198370206  CLST      91              1.0000000000
       455        91  DCM       CL2             0.2560663125        0.0897306084        1.9673879025  CLST      91              1.0000000000
       456        92  DCM       C               0.8061139202       -1.4233508510       -2.6849881137  CLST      92              1.0000000000
       457        92  DCM       H1              1.2067217915       -0.3885740232       -2.7041714008  CLST      92              1.0000000000
       458        92  DCM       H2             -0.0937240565       -1.5118807483       -3.3303539254  CLST      92              1.0000000000
       459        92  DCM       CL1             2.0637739420       -2.5436878554       -3.2826855850  CLST      92              1.0000000000
       460        92  DCM       CL2             0.3670209905       -1.8465927451       -1.0052429049  CLST      92              1.0000000000
