* INITIAL
*  DATE:     6/28/26      1:56:26      CREATED BY USER: boittier
*
       460  EXT
         1         1  DCM       C              -3.8992327830       10.2275540739       11.5179053587  CLST      1               1.0000000000
         2         1  DCM       H1             -4.7229363448       10.9692490276       11.5882903565  CLST      1               1.0000000000
         3         1  DCM       H2             -4.1276269893        9.4467334600       10.7617286627  CLST      1               1.0000000000
         4         1  DCM       CL1            -2.3951992526       11.0714338627       11.0455538289  CLST      1               1.0000000000
         5         1  DCM       CL2            -3.6814159083        9.4454955661       13.1108105042  CLST      1               1.0000000000
         6         2  DCM       C              12.9422821379       -1.0020091888       -1.5855564808  CLST      2               1.0000000000
         7         2  DCM       H1             13.5348158171       -0.1229067917       -1.2542278295  CLST      2               1.0000000000
         8         2  DCM       H2             12.2012088829       -1.2978467052       -0.8134593698  CLST      2               1.0000000000
         9         2  DCM       CL1            12.0778097707       -0.5894347497       -3.0938115251  CLST      2               1.0000000000
        10         2  DCM       CL2            14.0521260412       -2.3702221392       -1.8801127405  CLST      2               1.0000000000
        11         3  DCM       C              -2.5697562349       13.8616513977        0.1099619354  CLST      3               1.0000000000
        12         3  DCM       H1             -2.7628368118       13.4811246253        1.1299417136  CLST      3               1.0000000000
        13         3  DCM       H2             -3.4964584473       14.2595836176       -0.3547916912  CLST      3               1.0000000000
        14         3  DCM       CL1            -1.3482640879       15.1677040943        0.1951361494  CLST      3               1.0000000000
        15         3  DCM       CL2            -1.9416977683       12.5275730442       -0.9002945395  CLST      3               1.0000000000
        16         4  DCM       C              -2.5131680513        3.3749091840       -7.6278445630  CLST      4               1.0000000000
        17         4  DCM       H1             -1.7513637290        3.7950202020       -8.3180470150  CLST      4               1.0000000000
        18         4  DCM       H2             -2.0779963581        2.5734310927       -6.9937258845  CLST      4               1.0000000000
        19         4  DCM       CL1            -3.8559471864        2.6905831635       -8.5900705018  CLST      4               1.0000000000
        20         4  DCM       CL2            -3.1281840327        4.6815035039       -6.5740844656  CLST      4               1.0000000000
        21         5  DCM       C               7.4337757020       -0.7212315504      -10.0929060391  CLST      5               1.0000000000
        22         5  DCM       H1              7.9382687041       -1.5113860946       -9.4991764422  CLST      5               1.0000000000
        23         5  DCM       H2              6.7114681117       -0.1542461303       -9.4681821344  CLST      5               1.0000000000
        24         5  DCM       CL1             8.6677568776        0.4058860964      -10.7258616679  CLST      5               1.0000000000
        25         5  DCM       CL2             6.5561999327       -1.4899090698      -11.4467860070  CLST      5               1.0000000000
        26         6  DCM       C             -11.5669386497        3.7427290937       -6.7737729848  CLST      6               1.0000000000
        27         6  DCM       H1            -10.8674568454        3.0221477973       -7.2462490204  CLST      6               1.0000000000
        28         6  DCM       H2            -11.8853338725        3.3836190449       -5.7738059160  CLST      6               1.0000000000
        29         6  DCM       CL1           -10.7487338768        5.3209546206       -6.5891390197  CLST      6               1.0000000000
        30         6  DCM       CL2           -13.0132761732        3.9225741509       -7.8084433929  CLST      6               1.0000000000
        31         7  DCM       C               9.3546061103       -1.6078582862        2.0142684449  CLST      7               1.0000000000
        32         7  DCM       H1             10.3752056015       -1.1735877925        2.0662386503  CLST      7               1.0000000000
        33         7  DCM       H2              8.9132109883       -1.4687472272        1.0063642808  CLST      7               1.0000000000
        34         7  DCM       CL1             9.4430764457       -3.3551339056        2.3728881554  CLST      7               1.0000000000
        35         7  DCM       CL2             8.3119718037       -0.7954989026        3.2137661764  CLST      7               1.0000000000
        36         8  DCM       C              12.1695693258        3.1445529380       -1.8739782630  CLST      8               1.0000000000
        37         8  DCM       H1             12.3064869386        2.1445013436       -1.4124086074  CLST      8               1.0000000000
        38         8  DCM       H2             13.1256256407        3.7060592191       -1.9013929727  CLST      8               1.0000000000
        39         8  DCM       CL1            11.5896763833        2.9350145667       -3.5473065677  CLST      8               1.0000000000
        40         8  DCM       CL2            10.9694572543        4.0706743467       -0.9265068876  CLST      8               1.0000000000
        41         9  DCM       C              -1.5786746891        7.6900952387       -5.2268094112  CLST      9               1.0000000000
        42         9  DCM       H1             -2.2773309061        7.2654571435       -4.4756044509  CLST      9               1.0000000000
        43         9  DCM       H2             -1.8085257866        7.3135066776       -6.2455054482  CLST      9               1.0000000000
        44         9  DCM       CL1            -1.7256376185        9.4704762057       -5.2253720472  CLST      9               1.0000000000
        45         9  DCM       CL2             0.0910618511        7.2206830857       -4.8000767128  CLST      9               1.0000000000
        46        10  DCM       C              -6.5026577316       -0.4715075863       -2.6973238857  CLST      10              1.0000000000
        47        10  DCM       H1             -5.4910100453       -0.3136453254       -3.1253135388  CLST      10              1.0000000000
        48        10  DCM       H2             -7.2315313099       -0.7533172765       -3.4862840397  CLST      10              1.0000000000
        49        10  DCM       CL1            -6.4143255443       -1.7779392095       -1.4847567035  CLST      10              1.0000000000
        50        10  DCM       CL2            -7.0491394577        1.0386239302       -1.9196859868  CLST      10              1.0000000000
        51        11  DCM       C              12.8745529416       -4.3752016329        1.7231462127  CLST      11              1.0000000000
        52        11  DCM       H1             12.2826545926       -4.7205781155        2.5974565954  CLST      11              1.0000000000
        53        11  DCM       H2             13.8871004983       -4.8312006118        1.7194266006  CLST      11              1.0000000000
        54        11  DCM       CL1            12.0224587638       -4.8394029981        0.2219348667  CLST      11              1.0000000000
        55        11  DCM       CL2            13.0397442313       -2.5972848121        1.8001552689  CLST      11              1.0000000000
        56        12  DCM       C               2.6813336269      -14.7906435622       -1.4576489067  CLST      12              1.0000000000
        57        12  DCM       H1              3.6199738280      -14.6409849479       -2.0317053974  CLST      12              1.0000000000
        58        12  DCM       H2              2.3743013790      -13.8553306175       -0.9433257681  CLST      12              1.0000000000
        59        12  DCM       CL1             1.3850084552      -15.2910552665       -2.5821624913  CLST      12              1.0000000000
        60        12  DCM       CL2             2.9454849486      -16.0631674666       -0.2311629187  CLST      12              1.0000000000
        61        13  DCM       C               5.3212280509       -2.9988084942        2.7689485900  CLST      13              1.0000000000
        62        13  DCM       H1              4.3053015545       -3.0644916558        2.3272133531  CLST      13              1.0000000000
        63        13  DCM       H2              5.9634331486       -2.3037462985        2.1883002696  CLST      13              1.0000000000
        64        13  DCM       CL1             5.1919404514       -2.3995946775        4.4470785948  CLST      13              1.0000000000
        65        13  DCM       CL2             6.0733521158       -4.6187065149        2.7589495666  CLST      13              1.0000000000
        66        14  DCM       C              -5.8733246943       -7.9906254339       -0.6171778985  CLST      14              1.0000000000
        67        14  DCM       H1             -5.0294146506       -8.6744388280       -0.3874357205  CLST      14              1.0000000000
        68        14  DCM       H2             -5.5432753657       -6.9310347919       -0.5848852042  CLST      14              1.0000000000
        69        14  DCM       CL1            -6.4975144400       -8.3588344770       -2.2513187261  CLST      14              1.0000000000
        70        14  DCM       CL2            -7.1650760878       -8.2379937221        0.5935400609  CLST      14              1.0000000000
        71        15  DCM       C               2.6203486300        9.9852170574       -3.4898432425  CLST      15              1.0000000000
        72        15  DCM       H1              2.8678401506       10.8702424636       -4.1139555653  CLST      15              1.0000000000
        73        15  DCM       H2              2.5674602836        9.0636938932       -4.1074630566  CLST      15              1.0000000000
        74        15  DCM       CL1             3.8832450154        9.7809529111       -2.2417068229  CLST      15              1.0000000000
        75        15  DCM       CL2             1.0382895920       10.2544003368       -2.7050867163  CLST      15              1.0000000000
        76        16  DCM       C               2.9388880231       -5.9757230371        1.4694629528  CLST      16              1.0000000000
        77        16  DCM       H1              2.4617717013       -6.8967387954        1.0752603497  CLST      16              1.0000000000
        78        16  DCM       H2              3.8723145686       -6.2258477418        2.0148003543  CLST      16              1.0000000000
        79        16  DCM       CL1             3.3284560258       -4.8859322142        0.1067479932  CLST      16              1.0000000000
        80        16  DCM       CL2             1.8077939663       -5.1649301713        2.5906789919  CLST      16              1.0000000000
        81        17  DCM       C              15.0895392323        4.3142386056        0.4490257398  CLST      17              1.0000000000
        82        17  DCM       H1             14.2280614909        4.7661315739       -0.0857083189  CLST      17              1.0000000000
        83        17  DCM       H2             16.0404353641        4.8125144580        0.1633020510  CLST      17              1.0000000000
        84        17  DCM       CL1            14.8377447150        4.4984325782        2.2087683940  CLST      17              1.0000000000
        85        17  DCM       CL2            15.1954061310        2.5791953472        0.0311190387  CLST      17              1.0000000000
        86        18  DCM       C              -4.3548466903       -2.7440954183        1.3515143647  CLST      18              1.0000000000
        87        18  DCM       H1             -3.7524599019       -2.1124947543        0.6639716487  CLST      18              1.0000000000
        88        18  DCM       H2             -5.2759224224       -2.2123749439        1.6705737575  CLST      18              1.0000000000
        89        18  DCM       CL1            -4.8121720023       -4.2512459283        0.5074294164  CLST      18              1.0000000000
        90        18  DCM       CL2            -3.3745982288       -3.1397204347        2.7929266634  CLST      18              1.0000000000
        91        19  DCM       C               8.5555867127       -6.0525067081        5.1715680497  CLST      19              1.0000000000
        92        19  DCM       H1              8.2527462191       -6.6857387671        6.0312467032  CLST      19              1.0000000000
        93        19  DCM       H2              7.9472749419       -6.2874913696        4.2739962848  CLST      19              1.0000000000
        94        19  DCM       CL1             8.3153848759       -4.3351379485        5.5994300059  CLST      19              1.0000000000
        95        19  DCM       CL2            10.2788246789       -6.3496011693        4.8021219430  CLST      19              1.0000000000
        96        20  DCM       C              -2.8880761249        3.3456049774        9.1845943289  CLST      20              1.0000000000
        97        20  DCM       H1             -1.8726693135        2.9327521080        9.3580596334  CLST      20              1.0000000000
        98        20  DCM       H2             -2.8856977177        4.0716687638        8.3437418109  CLST      20              1.0000000000
        99        20  DCM       CL1            -3.9951744218        1.9986570714        8.7949226038  CLST      20              1.0000000000
       100        20  DCM       CL2            -3.4391799799        4.1727884129       10.6697808226  CLST      20              1.0000000000
       101        21  DCM       C              -4.3597583852       -0.2164622155        6.0278405255  CLST      21              1.0000000000
       102        21  DCM       H1             -3.8092592669        0.7476327841        6.0021935159  CLST      21              1.0000000000
       103        21  DCM       H2             -5.0788028445       -0.2427466129        6.8733005760  CLST      21              1.0000000000
       104        21  DCM       CL1            -5.2578487319       -0.4124195280        4.4966177301  CLST      21              1.0000000000
       105        21  DCM       CL2            -3.1895676513       -1.5522874835        6.2237222926  CLST      21              1.0000000000
       106        22  DCM       C             -14.2917569358        0.9898476106       -5.7610232910  CLST      22              1.0000000000
       107        22  DCM       H1            -14.9232908425        0.1537261226       -5.3944753262  CLST      22              1.0000000000
       108        22  DCM       H2            -14.6448664319        1.3546389005       -6.7488839707  CLST      22              1.0000000000
       109        22  DCM       CL1           -14.3626753994        2.3332385991       -4.5829481309  CLST      22              1.0000000000
       110        22  DCM       CL2           -12.6077120890        0.4139234437       -5.9230082227  CLST      22              1.0000000000
       111        23  DCM       C              -0.8242299564        7.5762731253       11.4954233663  CLST      23              1.0000000000
       112        23  DCM       H1             -0.8579292227        8.6160841364       11.8763813730  CLST      23              1.0000000000
       113        23  DCM       H2              0.2123385320        7.2899575175       11.2076123764  CLST      23              1.0000000000
       114        23  DCM       CL1            -1.3988673289        6.4691250423       12.7753039626  CLST      23              1.0000000000
       115        23  DCM       CL2            -1.8808621883        7.4436518561       10.0592641338  CLST      23              1.0000000000
       116        24  DCM       C              -6.8021154624        4.7487068456       -8.4054917694  CLST      24              1.0000000000
       117        24  DCM       H1             -6.4985916671        4.4296700758       -9.4248861761  CLST      24              1.0000000000
       118        24  DCM       H2             -5.9138554982        4.9068962345       -7.7596389429  CLST      24              1.0000000000
       119        24  DCM       CL1            -7.7178211266        6.2782767853       -8.5212525164  CLST      24              1.0000000000
       120        24  DCM       CL2            -7.8314670381        3.4802951217       -7.6826539298  CLST      24              1.0000000000
       121        25  DCM       C               3.8614824863        5.2807699809        3.1616791119  CLST      25              1.0000000000
       122        25  DCM       H1              3.9857500755        6.1269478351        2.4539673810  CLST      25              1.0000000000
       123        25  DCM       H2              4.8474432643        4.9050627694        3.5100720432  CLST      25              1.0000000000
       124        25  DCM       CL1             2.9221426828        5.8366250780        4.5757888495  CLST      25              1.0000000000
       125        25  DCM       CL2             2.9872883387        3.9544818316        2.3425547999  CLST      25              1.0000000000
       126        26  DCM       C               8.2551263913        1.6917466143       -4.3560495435  CLST      26              1.0000000000
       127        26  DCM       H1              9.0579751467        1.8749876713       -5.1009538374  CLST      26              1.0000000000
       128        26  DCM       H2              8.5079298499        0.8285956601       -3.7047418115  CLST      26              1.0000000000
       129        26  DCM       CL1             8.0601716210        3.1511513218       -3.3433996700  CLST      26              1.0000000000
       130        26  DCM       CL2             6.7276277558        1.3471289633       -5.2185458339  CLST      26              1.0000000000
       131        27  DCM       C              -8.4127971920       -4.9498920193        0.4410168285  CLST      27              1.0000000000
       132        27  DCM       H1             -7.5057181039       -5.1523393873        1.0484573443  CLST      27              1.0000000000
       133        27  DCM       H2             -9.2307636884       -5.6478269020        0.7125808488  CLST      27              1.0000000000
       134        27  DCM       CL1            -8.9574005135       -3.2808002589        0.7499610091  CLST      27              1.0000000000
       135        27  DCM       CL2            -8.0201259918       -5.1434651074       -1.2922750316  CLST      27              1.0000000000
       136        28  DCM       C               7.3350694898        0.7920533602        6.6268323225  CLST      28              1.0000000000
       137        28  DCM       H1              7.9404345379        1.3636395476        7.3627635051  CLST      28              1.0000000000
       138        28  DCM       H2              7.6062771639        1.0689477249        5.5864835089  CLST      28              1.0000000000
       139        28  DCM       CL1             7.6382831971       -0.9534384146        6.8608206921  CLST      28              1.0000000000
       140        28  DCM       CL2             5.6030477974        1.1484560567        6.8967993396  CLST      28              1.0000000000
       141        29  DCM       C               9.7931577320       -3.5330573294      -11.5379662249  CLST      29              1.0000000000
       142        29  DCM       H1             10.2614997755       -4.5004906167      -11.8167461106  CLST      29              1.0000000000
       143        29  DCM       H2              8.6996710379       -3.6487183986      -11.3835726455  CLST      29              1.0000000000
       144        29  DCM       CL1            10.5371231481       -2.9410044164      -10.0241168568  CLST      29              1.0000000000
       145        29  DCM       CL2            10.0709732530       -2.3522882290      -12.8507604648  CLST      29              1.0000000000
       146        30  DCM       C               4.2234612746      -11.1978201821       -3.5114745568  CLST      30              1.0000000000
       147        30  DCM       H1              3.4100587447      -10.4433239450       -3.4554082948  CLST      30              1.0000000000
       148        30  DCM       H2              5.1249395979      -10.7765269757       -4.0051233016  CLST      30              1.0000000000
       149        30  DCM       CL1             4.6537287496      -11.7172000333       -1.8555321349  CLST      30              1.0000000000
       150        30  DCM       CL2             3.6470481795      -12.6033849974       -4.4532944715  CLST      30              1.0000000000
       151        31  DCM       C               9.2235600400       -7.0243659189       -3.9424647526  CLST      31              1.0000000000
       152        31  DCM       H1              9.6268028279       -6.5960224126       -3.0007817185  CLST      31              1.0000000000
       153        31  DCM       H2             10.0304461257       -7.1639869859       -4.6931073073  CLST      31              1.0000000000
       154        31  DCM       CL1             8.4699820465       -8.6069703702       -3.5906349403  CLST      31              1.0000000000
       155        31  DCM       CL2             7.9991335278       -5.9075836522       -4.6092537815  CLST      31              1.0000000000
       156        32  DCM       C              11.1197955355       -3.3302237402       -5.0362728495  CLST      32              1.0000000000
       157        32  DCM       H1             10.2590251321       -2.7895998988       -4.5899690068  CLST      32              1.0000000000
       158        32  DCM       H2             11.9370265415       -2.6258057918       -5.3011837243  CLST      32              1.0000000000
       159        32  DCM       CL1            11.7400826351       -4.5173311966       -3.8526264579  CLST      32              1.0000000000
       160        32  DCM       CL2            10.5793101900       -4.1746014434       -6.5157966027  CLST      32              1.0000000000
       161        33  DCM       C             -12.8365655762       -3.4420622615       -0.3217109905  CLST      33              1.0000000000
       162        33  DCM       H1            -13.7852078365       -2.9818437524        0.0231789207  CLST      33              1.0000000000
       163        33  DCM       H2            -12.0604232765       -2.6675111148       -0.4876250485  CLST      33              1.0000000000
       164        33  DCM       CL1           -12.2556489140       -4.5862030295        0.9181414121  CLST      33              1.0000000000
       165        33  DCM       CL2           -13.1350355993       -4.3162832355       -1.8498172058  CLST      33              1.0000000000
       166        34  DCM       C              10.3228177157       -4.9581934534        8.5681202315  CLST      34              1.0000000000
       167        34  DCM       H1             10.6226050493       -5.0710197033        7.5049911047  CLST      34              1.0000000000
       168        34  DCM       H2             11.1539167577       -5.2393518600        9.2487194097  CLST      34              1.0000000000
       169        34  DCM       CL1             9.8779556037       -3.2527522938        8.8657147243  CLST      34              1.0000000000
       170        34  DCM       CL2             8.9179112528       -6.0156747348        8.8949292298  CLST      34              1.0000000000
       171        35  DCM       C              -2.9417089587      -14.0082431365       -0.7306421729  CLST      35              1.0000000000
       172        35  DCM       H1             -3.3952613673      -13.0066792633       -0.8822055178  CLST      35              1.0000000000
       173        35  DCM       H2             -3.0135587800      -14.6236045422       -1.6520525267  CLST      35              1.0000000000
       174        35  DCM       CL1            -1.2198805880      -13.8044143309       -0.2971402651  CLST      35              1.0000000000
       175        35  DCM       CL2            -3.8061162214      -14.8396809973        0.5949466775  CLST      35              1.0000000000
       176        36  DCM       C               1.7741678222        1.8706594037        7.2544067516  CLST      36              1.0000000000
       177        36  DCM       H1              2.0882149778        2.7419905231        7.8700839670  CLST      36              1.0000000000
       178        36  DCM       H2              2.3477366968        0.9616854666        7.5320301614  CLST      36              1.0000000000
       179        36  DCM       CL1             0.0323501050        1.5647977685        7.5195165013  CLST      36              1.0000000000
       180        36  DCM       CL2             2.0681401551        2.2452916146        5.5322801748  CLST      36              1.0000000000
       181        37  DCM       C              10.8534278487       -0.3096688280       -7.5631504311  CLST      37              1.0000000000
       182        37  DCM       H1             10.7217041662        0.1921528450       -8.5449906981  CLST      37              1.0000000000
       183        37  DCM       H2             11.4656481563       -1.2306861784       -7.6652823772  CLST      37              1.0000000000
       184        37  DCM       CL1            11.6749664857        0.8134233901       -6.4428297439  CLST      37              1.0000000000
       185        37  DCM       CL2             9.2481997738       -0.7483306536       -6.9122558042  CLST      37              1.0000000000
       186        38  DCM       C              -4.5454376047        9.8312333065        1.5481048446  CLST      38              1.0000000000
       187        38  DCM       H1             -4.3089482737        8.8443849936        1.0930940131  CLST      38              1.0000000000
       188        38  DCM       H2             -5.2833840650        9.7240198746        2.3688992001  CLST      38              1.0000000000
       189        38  DCM       CL1            -3.0415651774       10.5404231975        2.2010665513  CLST      38              1.0000000000
       190        38  DCM       CL2            -5.2170854462       10.9028252937        0.2848296130  CLST      38              1.0000000000
       191        39  DCM       C               0.0457266427        6.0411688870        2.2108933497  CLST      39              1.0000000000
       192        39  DCM       H1              1.1043106002        6.3436350977        2.0681646230  CLST      39              1.0000000000
       193        39  DCM       H2             -0.0827871627        5.4839970256        3.1631895668  CLST      39              1.0000000000
       194        39  DCM       CL1            -0.9699539505        7.5096883020        2.2515690753  CLST      39              1.0000000000
       195        39  DCM       CL2            -0.4459612163        4.9956931972        0.8463372115  CLST      39              1.0000000000
       196        40  DCM       C              -2.3599612405        9.1094992556       -1.5661166154  CLST      40              1.0000000000
       197        40  DCM       H1             -2.5592227031        9.6287963735       -0.6063019314  CLST      40              1.0000000000
       198        40  DCM       H2             -1.9599318261        9.8171188580       -2.3224088803  CLST      40              1.0000000000
       199        40  DCM       CL1            -3.8797397625        8.3970402372       -2.1779907805  CLST      40              1.0000000000
       200        40  DCM       CL2            -1.1614159477        7.8197834304       -1.2813310531  CLST      40              1.0000000000
       201        41  DCM       C               0.7891950884       -7.5925805228       -1.3660964988  CLST      41              1.0000000000
       202        41  DCM       H1              0.3253484904       -8.4802479937       -0.8868638834  CLST      41              1.0000000000
       203        41  DCM       H2              0.8196693238       -6.7303034191       -0.6678437539  CLST      41              1.0000000000
       204        41  DCM       CL1             2.4553009296       -8.0030521295       -1.8663226505  CLST      41              1.0000000000
       205        41  DCM       CL2            -0.1738832087       -7.1324513345       -2.7977442878  CLST      41              1.0000000000
       206        42  DCM       C              11.8411936728        2.4044269972        2.3284719927  CLST      42              1.0000000000
       207        42  DCM       H1             12.3599104623        2.3939663903        3.3104288205  CLST      42              1.0000000000
       208        42  DCM       H2             12.0998683493        3.3159274758        1.7499651547  CLST      42              1.0000000000
       209        42  DCM       CL1            12.3373960200        0.9644991226        1.3958398248  CLST      42              1.0000000000
       210        42  DCM       CL2            10.0755168598        2.3698630287        2.5988538772  CLST      42              1.0000000000
       211        43  DCM       C               0.5543552859        3.9511132707       11.0302665803  CLST      43              1.0000000000
       212        43  DCM       H1              1.0239826829        4.6164341054       11.7844792705  CLST      43              1.0000000000
       213        43  DCM       H2             -0.4915987616        3.7073983778       11.3145307718  CLST      43              1.0000000000
       214        43  DCM       CL1             0.5521448042        4.7742528591        9.4434498017  CLST      43              1.0000000000
       215        43  DCM       CL2             1.4959864747        2.4358787303       10.9258822542  CLST      43              1.0000000000
       216        44  DCM       C              12.1507528840        6.6502863795       -3.5969763243  CLST      44              1.0000000000
       217        44  DCM       H1             11.3197435559        5.9384115292       -3.4073358957  CLST      44              1.0000000000
       218        44  DCM       H2             11.7598518842        7.6658520203       -3.8182185404  CLST      44              1.0000000000
       219        44  DCM       CL1            13.1973679522        6.7330132295       -2.1498535454  CLST      44              1.0000000000
       220        44  DCM       CL2            13.0978221026        6.0739302338       -4.9989366270  CLST      44              1.0000000000
       221        45  DCM       C              -0.9588585242       14.6249893587       -3.8293270581  CLST      45              1.0000000000
       222        45  DCM       H1             -0.4341847744       14.7553483591       -2.8609882785  CLST      45              1.0000000000
       223        45  DCM       H2             -0.5508843956       15.3119563133       -4.6017411829  CLST      45              1.0000000000
       224        45  DCM       CL1            -0.7469371230       12.9388535533       -4.3828152187  CLST      45              1.0000000000
       225        45  DCM       CL2            -2.6968387060       14.9723258832       -3.5963243958  CLST      45              1.0000000000
       226        46  DCM       C             -16.0124922218       -4.7386472269        1.2699314506  CLST      46              1.0000000000
       227        46  DCM       H1            -15.1279110984       -5.3674080585        1.0359705360  CLST      46              1.0000000000
       228        46  DCM       H2            -16.8022291922       -5.3358241695        1.7732214986  CLST      46              1.0000000000
       229        46  DCM       CL1           -15.5080756977       -3.4077780095        2.3527419308  CLST      46              1.0000000000
       230        46  DCM       CL2           -16.6622434231       -4.0705004915       -0.2553490766  CLST      46              1.0000000000
       231        47  DCM       C               8.0513812405        1.2079649506       -0.2545025969  CLST      47              1.0000000000
       232        47  DCM       H1              8.0067111323        0.9936981270        0.8329515958  CLST      47              1.0000000000
       233        47  DCM       H2              7.9129962602        2.2907137058       -0.4546102874  CLST      47              1.0000000000
       234        47  DCM       CL1             6.7670468710        0.2841628800       -1.0800554957  CLST      47              1.0000000000
       235        47  DCM       CL2             9.6435520070        0.7070192393       -0.8813110185  CLST      47              1.0000000000
       236        48  DCM       C              -4.7798474273      -11.6349043911        2.3863758827  CLST      48              1.0000000000
       237        48  DCM       H1             -5.0578206489      -12.6577063648        2.7194394061  CLST      48              1.0000000000
       238        48  DCM       H2             -5.2536400514      -10.8610470902        3.0263470895  CLST      48              1.0000000000
       239        48  DCM       CL1            -3.0032622540      -11.4592932405        2.4804334790  CLST      48              1.0000000000
       240        48  DCM       CL2            -5.3265087224      -11.4076359053        0.6998356245  CLST      48              1.0000000000
       241        49  DCM       C             -10.8641685016       -7.4574944167       -1.1199913542  CLST      49              1.0000000000
       242        49  DCM       H1            -10.8315734824       -6.3473032631       -1.1363631616  CLST      49              1.0000000000
       243        49  DCM       H2             -9.9813633618       -7.8911768952       -1.6344615787  CLST      49              1.0000000000
       244        49  DCM       CL1           -10.8808200465       -8.0146275212        0.5789642998  CLST      49              1.0000000000
       245        49  DCM       CL2           -12.3532238275       -7.9966306442       -1.9478327616  CLST      49              1.0000000000
       246        50  DCM       C               1.8642843165        9.7453408703        0.7883657250  CLST      50              1.0000000000
       247        50  DCM       H1              1.6482612808        8.9274005822        0.0710295876  CLST      50              1.0000000000
       248        50  DCM       H2              2.6681442004       10.4092871406        0.4059740282  CLST      50              1.0000000000
       249        50  DCM       CL1             0.3753139136       10.7013739276        1.0157835454  CLST      50              1.0000000000
       250        50  DCM       CL2             2.3877259904        9.0429856578        2.3454221854  CLST      50              1.0000000000
       251        51  DCM       C               8.7794465045       -7.0807169242        1.3800678073  CLST      51              1.0000000000
       252        51  DCM       H1              7.8140979197       -6.5794960238        1.1566037469  CLST      51              1.0000000000
       253        51  DCM       H2              9.4502793115       -6.4125987262        1.9596481100  CLST      51              1.0000000000
       254        51  DCM       CL1             8.4577165974       -8.5582945903        2.3316883777  CLST      51              1.0000000000
       255        51  DCM       CL2             9.5852347819       -7.5183981702       -0.1536751974  CLST      51              1.0000000000
       256        52  DCM       C               5.9841203120       -8.4280737495       -0.9382347975  CLST      52              1.0000000000
       257        52  DCM       H1              6.9992973621       -8.8707304689       -0.8601064277  CLST      52              1.0000000000
       258        52  DCM       H2              5.4004008943       -8.9085257083       -1.7500189533  CLST      52              1.0000000000
       259        52  DCM       CL1             5.1277385095       -8.6604235044        0.6124210763  CLST      52              1.0000000000
       260        52  DCM       CL2             6.1266868049       -6.6850819330       -1.2988555631  CLST      52              1.0000000000
       261        53  DCM       C             -10.4980991995        2.1085379666       -3.1002371630  CLST      53              1.0000000000
       262        53  DCM       H1             -9.9079057651        1.8998267156       -2.1832324961  CLST      53              1.0000000000
       263        53  DCM       H2            -11.3817635566        1.4395773350       -3.1679480045  CLST      53              1.0000000000
       264        53  DCM       CL1            -9.4607216765        1.8422609167       -4.5318985276  CLST      53              1.0000000000
       265        53  DCM       CL2           -11.0522093092        3.8063353733       -3.0498426535  CLST      53              1.0000000000
       266        54  DCM       C               5.2154060940        1.2118540001        3.3329825613  CLST      54              1.0000000000
       267        54  DCM       H1              4.3795780787        1.7154962297        3.8609877258  CLST      54              1.0000000000
       268        54  DCM       H2              5.7085206272        0.4656214491        3.9899434679  CLST      54              1.0000000000
       269        54  DCM       CL1             6.4157470057        2.4411565366        2.8442045713  CLST      54              1.0000000000
       270        54  DCM       CL2             4.5742194265        0.3770969025        1.8901681000  CLST      54              1.0000000000
       271        55  DCM       C              -2.3438189020       -7.5104694705        1.9182756730  CLST      55              1.0000000000
       272        55  DCM       H1             -1.8673295069       -8.5131177818        1.8755866519  CLST      55              1.0000000000
       273        55  DCM       H2             -1.8087857353       -6.8420384232        2.6258972284  CLST      55              1.0000000000
       274        55  DCM       CL1            -2.3078894728       -6.7774361205        0.2885097343  CLST      55              1.0000000000
       275        55  DCM       CL2            -4.0365502651       -7.6952689387        2.4617534743  CLST      55              1.0000000000
       276        56  DCM       C              -4.0658221470       -6.6357858810       -4.7949549585  CLST      56              1.0000000000
       277        56  DCM       H1             -4.0602107782       -5.7853219228       -5.5094390984  CLST      56              1.0000000000
       278        56  DCM       H2             -5.0393812087       -7.1699473403       -4.8129703917  CLST      56              1.0000000000
       279        56  DCM       CL1            -2.7711261068       -7.7771578085       -5.2573296466  CLST      56              1.0000000000
       280        56  DCM       CL2            -3.7757909552       -6.0089623456       -3.1447656391  CLST      56              1.0000000000
       281        57  DCM       C              11.0606581026       -1.8134565597        5.6204344987  CLST      57              1.0000000000
       282        57  DCM       H1             10.0418444800       -2.0286920421        5.2379049257  CLST      57              1.0000000000
       283        57  DCM       H2             11.0362397768       -1.5728648893        6.7045936900  CLST      57              1.0000000000
       284        57  DCM       CL1            12.0910737759       -3.2502380210        5.3649404089  CLST      57              1.0000000000
       285        57  DCM       CL2            11.7323882806       -0.4164986347        4.7332390765  CLST      57              1.0000000000
       286        58  DCM       C               0.7731022074       13.7525671524        2.9639364778  CLST      58              1.0000000000
       287        58  DCM       H1              0.7822747148       13.6930444456        1.8559407006  CLST      58              1.0000000000
       288        58  DCM       H2              0.9699381392       14.7897824705        3.3106389004  CLST      58              1.0000000000
       289        58  DCM       CL1            -0.8316942719       13.2350459908        3.5560750829  CLST      58              1.0000000000
       290        58  DCM       CL2             2.0391789157       12.6709106126        3.6142249867  CLST      58              1.0000000000
       291        59  DCM       C               0.2084241563      -11.7768378722       -3.3155637157  CLST      59              1.0000000000
       292        59  DCM       H1             -0.8737440224      -11.9438983728       -3.1308510070  CLST      59              1.0000000000
       293        59  DCM       H2              0.6841811584      -12.6864057146       -3.7380716752  CLST      59              1.0000000000
       294        59  DCM       CL1             0.4086988837      -10.4302500552       -4.4734396765  CLST      59              1.0000000000
       295        59  DCM       CL2             1.0056553827      -11.3654452811       -1.7702947243  CLST      59              1.0000000000
       296        60  DCM       C              -9.9440352415       -2.5023613885       -2.7166598170  CLST      60              1.0000000000
       297        60  DCM       H1             -8.8878304585       -2.6567169910       -3.0165581425  CLST      60              1.0000000000
       298        60  DCM       H2            -10.3183333585       -3.3647982040       -2.1268414642  CLST      60              1.0000000000
       299        60  DCM       CL1           -10.0501194730       -1.0252853008       -1.7207875202  CLST      60              1.0000000000
       300        60  DCM       CL2           -10.9478038880       -2.3180189912       -4.1816735311  CLST      60              1.0000000000
       301        61  DCM       C               5.4734000083       -8.3108357804        8.9083574818  CLST      61              1.0000000000
       302        61  DCM       H1              5.3075005308       -7.2165067658        8.9952486373  CLST      61              1.0000000000
       303        61  DCM       H2              5.9409755034       -8.7171447611        9.8300197850  CLST      61              1.0000000000
       304        61  DCM       CL1             3.8997180698       -9.1182810690        8.6488151072  CLST      61              1.0000000000
       305        61  DCM       CL2             6.5531821235       -8.6304407643        7.5196975689  CLST      61              1.0000000000
       306        62  DCM       C              -0.1882956154        9.9524737204        4.9982984662  CLST      62              1.0000000000
       307        62  DCM       H1              0.4392560775       10.7914308052        5.3718236612  CLST      62              1.0000000000
       308        62  DCM       H2             -0.2401247977        9.9593485156        3.8912235486  CLST      62              1.0000000000
       309        62  DCM       CL1             0.5254832076        8.4084657773        5.5473456976  CLST      62              1.0000000000
       310        62  DCM       CL2            -1.8380483675       10.1244114524        5.6639483623  CLST      62              1.0000000000
       311        63  DCM       C               3.5830241061       -5.1775193431        5.8867271862  CLST      63              1.0000000000
       312        63  DCM       H1              3.1420813580       -4.1624749458        5.9780430578  CLST      63              1.0000000000
       313        63  DCM       H2              3.8083279868       -5.4198372174        4.8272478484  CLST      63              1.0000000000
       314        63  DCM       CL1             5.1003641996       -5.2397742344        6.8280618358  CLST      63              1.0000000000
       315        63  DCM       CL2             2.4227848108       -6.3764249782        6.5260481326  CLST      63              1.0000000000
       316        64  DCM       C             -13.6804889606       -7.2382077201        3.3502443391  CLST      64              1.0000000000
       317        64  DCM       H1            -13.1245146751       -7.9777592875        3.9634917951  CLST      64              1.0000000000
       318        64  DCM       H2            -13.0212460373       -6.3986335227        3.0468225423  CLST      64              1.0000000000
       319        64  DCM       CL1           -14.3050726929       -8.0439303396        1.8816227861  CLST      64              1.0000000000
       320        64  DCM       CL2           -15.0406324915       -6.5873697476        4.3101393602  CLST      64              1.0000000000
       321        65  DCM       C              -6.4067659510       -3.7004196955       -4.7484512084  CLST      65              1.0000000000
       322        65  DCM       H1             -6.7233114089       -3.7618421329       -3.6864810075  CLST      65              1.0000000000
       323        65  DCM       H2             -6.2929358684       -4.7131623877       -5.1881366456  CLST      65              1.0000000000
       324        65  DCM       CL1            -7.6411239279       -2.8069837217       -5.6809666687  CLST      65              1.0000000000
       325        65  DCM       CL2            -4.8415556970       -2.8415002378       -4.8404669188  CLST      65              1.0000000000
       326        66  DCM       C              -2.7994856122       -9.6778062612       -2.3172455001  CLST      66              1.0000000000
       327        66  DCM       H1             -3.3776660402       -8.7386522454       -2.1984156371  CLST      66              1.0000000000
       328        66  DCM       H2             -1.9389211303       -9.5275616905       -3.0008773763  CLST      66              1.0000000000
       329        66  DCM       CL1            -2.1879534704      -10.1907713262       -0.7217039334  CLST      66              1.0000000000
       330        66  DCM       CL2            -3.8656513070      -10.9413714883       -2.9935730142  CLST      66              1.0000000000
       331        67  DCM       C              -7.7533300413        5.2708773496       -4.2421023405  CLST      67              1.0000000000
       332        67  DCM       H1             -8.1884753164        4.5109323350       -4.9241837973  CLST      67              1.0000000000
       333        67  DCM       H2             -8.4568055833        6.1171948659       -4.0920632136  CLST      67              1.0000000000
       334        67  DCM       CL1            -7.4144903246        4.5081227359       -2.6628353306  CLST      67              1.0000000000
       335        67  DCM       CL2            -6.2329660748        5.8905220311       -4.9479494726  CLST      67              1.0000000000
       336        68  DCM       C             -12.0799395263        0.3060002927        1.1789542918  CLST      68              1.0000000000
       337        68  DCM       H1            -12.4951188086       -0.1091664490        0.2398559066  CLST      68              1.0000000000
       338        68  DCM       H2            -12.8680860751        0.8136781656        1.7771822931  CLST      68              1.0000000000
       339        68  DCM       CL1           -11.3964327186       -1.0351148917        2.1387770001  CLST      68              1.0000000000
       340        68  DCM       CL2           -10.8005545896        1.4863522931        0.7722008961  CLST      68              1.0000000000
       341        69  DCM       C              -5.5133131500        1.9573256126       -5.3045724721  CLST      69              1.0000000000
       342        69  DCM       H1             -6.0949204749        2.2459373374       -4.4040296492  CLST      69              1.0000000000
       343        69  DCM       H2             -5.4252270447        2.8111252109       -6.0076819426  CLST      69              1.0000000000
       344        69  DCM       CL1            -3.8766115355        1.4384205492       -4.8087779223  CLST      69              1.0000000000
       345        69  DCM       CL2            -6.3433896805        0.6087190289       -6.1317404276  CLST      69              1.0000000000
       346        70  DCM       C               1.8445776533       13.6400920083       -1.2166926451  CLST      70              1.0000000000
       347        70  DCM       H1              1.4118828923       14.6324083412       -0.9717476293  CLST      70              1.0000000000
       348        70  DCM       H2              1.0659003825       12.8481374537       -1.1960270172  CLST      70              1.0000000000
       349        70  DCM       CL1             3.1090085807       13.2483750317       -0.0169609749  CLST      70              1.0000000000
       350        70  DCM       CL2             2.5638617855       13.7095563873       -2.8511655328  CLST      70              1.0000000000
       351        71  DCM       C              -3.1853105684        0.0209161235       12.3716301861  CLST      71              1.0000000000
       352        71  DCM       H1             -3.3761881376       -0.9003732021       11.7818078060  CLST      71              1.0000000000
       353        71  DCM       H2             -2.9651319314       -0.2210264667       13.4332733261  CLST      71              1.0000000000
       354        71  DCM       CL1            -1.7832938733        0.8790466587       11.6694856244  CLST      71              1.0000000000
       355        71  DCM       CL2            -4.6355907281        1.0641296602       12.3029055651  CLST      71              1.0000000000
       356        72  DCM       C             -10.4754376361       -4.0959934228        4.2742898815  CLST      72              1.0000000000
       357        72  DCM       H1            -10.1515829312       -3.3613448666        3.5078983777  CLST      72              1.0000000000
       358        72  DCM       H2             -9.9476539369       -3.9247332407        5.2365215383  CLST      72              1.0000000000
       359        72  DCM       CL1           -12.2346918563       -3.9198867092        4.5361481120  CLST      72              1.0000000000
       360        72  DCM       CL2           -10.1047662416       -5.7451481582        3.6909702250  CLST      72              1.0000000000
       361        73  DCM       C              -4.0543507244        5.8357423503        0.9767032041  CLST      73              1.0000000000
       362        73  DCM       H1             -3.2788309760        6.5156962569        0.5621311597  CLST      73              1.0000000000
       363        73  DCM       H2             -3.7664724918        4.7732339229        0.8341679289  CLST      73              1.0000000000
       364        73  DCM       CL1            -4.2402752328        6.1588488832        2.7245237078  CLST      73              1.0000000000
       365        73  DCM       CL2            -5.6029539171        6.1461695762        0.1408282599  CLST      73              1.0000000000
       366        74  DCM       C              -9.0480739198       -0.2924803676        4.8599100417  CLST      74              1.0000000000
       367        74  DCM       H1             -8.0789631113       -0.2393236995        5.3972662781  CLST      74              1.0000000000
       368        74  DCM       H2             -8.9861060898       -0.9883741975        3.9966339229  CLST      74              1.0000000000
       369        74  DCM       CL1           -10.3065419158       -0.8760119530        5.9857151752  CLST      74              1.0000000000
       370        74  DCM       CL2            -9.4768843380        1.3387348938        4.2675334243  CLST      74              1.0000000000
       371        75  DCM       C              -6.3193951441       -3.8611494400        5.3071311674  CLST      75              1.0000000000
       372        75  DCM       H1             -5.2518764701       -3.5550724764        5.2925040319  CLST      75              1.0000000000
       373        75  DCM       H2             -6.4215487369       -4.9478894406        5.5111391213  CLST      75              1.0000000000
       374        75  DCM       CL1            -7.1704934276       -2.9445782169        6.5835577384  CLST      75              1.0000000000
       375        75  DCM       CL2            -7.0467501946       -3.4966772975        3.7173988015  CLST      75              1.0000000000
       376        76  DCM       C               5.6136899077       -2.1592658053       -3.7102146578  CLST      76              1.0000000000
       377        76  DCM       H1              5.4001614316       -1.7235205370       -2.7118871374  CLST      76              1.0000000000
       378        76  DCM       H2              5.0605466688       -1.6188870849       -4.5073085858  CLST      76              1.0000000000
       379        76  DCM       CL1             7.3664944097       -2.0391599304       -4.0368202281  CLST      76              1.0000000000
       380        76  DCM       CL2             5.1144202834       -3.8755539003       -3.7085912990  CLST      76              1.0000000000
       381        77  DCM       C             -14.8589753432        0.4287134620       -1.5687111215  CLST      77              1.0000000000
       382        77  DCM       H1            -14.4539986794        1.3892862459       -1.1851750516  CLST      77              1.0000000000
       383        77  DCM       H2            -15.6823859251        0.6050948967       -2.2927055723  CLST      77              1.0000000000
       384        77  DCM       CL1           -15.4834036786       -0.5337200365       -0.1989389345  CLST      77              1.0000000000
       385        77  DCM       CL2           -13.5488727550       -0.4690376988       -2.3858862381  CLST      77              1.0000000000
       386        78  DCM       C              -7.3484222605        2.4596860520      -12.3273698280  CLST      78              1.0000000000
       387        78  DCM       H1             -8.4482779344        2.3628947607      -12.4487069058  CLST      78              1.0000000000
       388        78  DCM       H2             -6.8097372321        1.9463351306      -13.1516100163  CLST      78              1.0000000000
       389        78  DCM       CL1            -6.9109371929        4.1933526334      -12.3377898209  CLST      78              1.0000000000
       390        78  DCM       CL2            -6.8671889724        1.7228476942      -10.7710909438  CLST      78              1.0000000000
       391        79  DCM       C              -6.6276946714        1.3657869251        1.6301978812  CLST      79              1.0000000000
       392        79  DCM       H1             -7.0585301518        2.1007613287        0.9183740497  CLST      79              1.0000000000
       393        79  DCM       H2             -6.6636548770        1.7490287651        2.6720206142  CLST      79              1.0000000000
       394        79  DCM       CL1            -7.5662756518       -0.1516289881        1.5392119307  CLST      79              1.0000000000
       395        79  DCM       CL2            -4.9261554712        1.0452414249        1.1839491100  CLST      79              1.0000000000
       396        80  DCM       C               6.7433933749        6.7151523062       -2.8054459405  CLST      80              1.0000000000
       397        80  DCM       H1              6.3928449001        5.7003225472       -3.0854399437  CLST      80              1.0000000000
       398        80  DCM       H2              6.2360282533        7.0705697771       -1.8827816087  CLST      80              1.0000000000
       399        80  DCM       CL1             8.5078115257        6.6625617104       -2.5184009154  CLST      80              1.0000000000
       400        80  DCM       CL2             6.3776290671        7.8453862634       -4.1416511839  CLST      80              1.0000000000
       401        81  DCM       C              -7.9462118130        1.9590162034        7.7444704185  CLST      81              1.0000000000
       402        81  DCM       H1             -8.9677060327        1.9003308349        7.3120727722  CLST      81              1.0000000000
       403        81  DCM       H2             -7.9025628592        2.7007756542        8.5696988569  CLST      81              1.0000000000
       404        81  DCM       CL1            -7.4959972465        0.3518758060        8.3850402498  CLST      81              1.0000000000
       405        81  DCM       CL2            -6.7978385690        2.4458233330        6.4625318462  CLST      81              1.0000000000
       406        82  DCM       C              15.2679468351        2.9733786667       -4.3763948422  CLST      82              1.0000000000
       407        82  DCM       H1             16.0539725115        2.8553751237       -5.1517705205  CLST      82              1.0000000000
       408        82  DCM       H2             14.2980667007        3.2634661179       -4.8330859590  CLST      82              1.0000000000
       409        82  DCM       CL1            15.0642285854        1.4208453891       -3.5148319204  CLST      82              1.0000000000
       410        82  DCM       CL2            15.7749879712        4.2421649162       -3.2232849675  CLST      82              1.0000000000
       411        83  DCM       C               6.7687792877       -3.7392513258       -7.1954345364  CLST      83              1.0000000000
       412        83  DCM       H1              6.1881241118       -4.5215296679       -6.6622633255  CLST      83              1.0000000000
       413        83  DCM       H2              7.6667563706       -3.4444437264       -6.6133170559  CLST      83              1.0000000000
       414        83  DCM       CL1             5.7299898572       -2.3036995632       -7.4298429920  CLST      83              1.0000000000
       415        83  DCM       CL2             7.2923747430       -4.3788802257       -8.7794935051  CLST      83              1.0000000000
       416        84  DCM       C               2.0911438483        6.4165065550       -1.9088115014  CLST      84              1.0000000000
       417        84  DCM       H1              1.3425730767        5.5982656385       -1.8486555112  CLST      84              1.0000000000
       418        84  DCM       H2              1.5980557129        7.3950693409       -2.0836928512  CLST      84              1.0000000000
       419        84  DCM       CL1             3.0028093084        6.4979462006       -0.3757588539  CLST      84              1.0000000000
       420        84  DCM       CL2             3.2114554178        6.0923701427       -3.2613574416  CLST      84              1.0000000000
       421        85  DCM       C              -3.6521520695        4.5031869101       -2.7323671662  CLST      85              1.0000000000
       422        85  DCM       H1             -4.0433610734        4.2735495540       -3.7438088961  CLST      85              1.0000000000
       423        85  DCM       H2             -4.0892491033        5.4457579391       -2.3413916174  CLST      85              1.0000000000
       424        85  DCM       CL1            -4.0808631943        3.1624962764       -1.6327150085  CLST      85              1.0000000000
       425        85  DCM       CL2            -1.8750634848        4.6696276579       -2.8208276619  CLST      85              1.0000000000
       426        86  DCM       C               8.4083022808       -3.9920649709       -1.1524168928  CLST      86              1.0000000000
       427        86  DCM       H1              8.1294737395       -4.4843878412       -2.1061702092  CLST      86              1.0000000000
       428        86  DCM       H2              8.8186824833       -4.7261724493       -0.4262076781  CLST      86              1.0000000000
       429        86  DCM       CL1             6.9557178132       -3.2298838984       -0.4487925909  CLST      86              1.0000000000
       430        86  DCM       CL2             9.6498549755       -2.7543935446       -1.4777611832  CLST      86              1.0000000000
       431        87  DCM       C               4.1139678766       -9.0555705423        4.5915044258  CLST      87              1.0000000000
       432        87  DCM       H1              3.8624820354       -8.9256554671        5.6647810339  CLST      87              1.0000000000
       433        87  DCM       H2              4.4969665022      -10.0789992658        4.3920072462  CLST      87              1.0000000000
       434        87  DCM       CL1             2.6441181988       -8.7813874561        3.6112606294  CLST      87              1.0000000000
       435        87  DCM       CL2             5.3710651939       -7.8676037000        4.1439663273  CLST      87              1.0000000000
       436        88  DCM       C               8.8201012301        6.0821412145       -6.5423663026  CLST      88              1.0000000000
       437        88  DCM       H1              8.6616939044        6.1394470967       -7.6403960662  CLST      88              1.0000000000
       438        88  DCM       H2              7.8561245452        5.9703867345       -6.0030595822  CLST      88              1.0000000000
       439        88  DCM       CL1             9.8546941182        4.6711237352       -6.1800087801  CLST      88              1.0000000000
       440        88  DCM       CL2             9.6242835280        7.5822747755       -5.9963929181  CLST      88              1.0000000000
       441        89  DCM       C             -10.2292505838        4.1004088875      -10.4283000750  CLST      89              1.0000000000
       442        89  DCM       H1            -10.8308427761        4.6998568362       -9.7130976940  CLST      89              1.0000000000
       443        89  DCM       H2             -9.1468854963        4.3172858544      -10.3155484188  CLST      89              1.0000000000
       444        89  DCM       CL1           -10.5063383208        2.3613854703      -10.1194875457  CLST      89              1.0000000000
       445        89  DCM       CL2           -10.7294816841        4.5066972963      -12.0948429041  CLST      89              1.0000000000
       446        90  DCM       C               4.5603630237        3.1924686280       -0.7800116117  CLST      90              1.0000000000
       447        90  DCM       H1              3.5739142465        3.6328457436       -0.5277812909  CLST      90              1.0000000000
       448        90  DCM       H2              4.7173057028        2.2367092152       -0.2423220219  CLST      90              1.0000000000
       449        90  DCM       CL1             4.6187131696        2.8842963679       -2.5386103884  CLST      90              1.0000000000
       450        90  DCM       CL2             5.8540681945        4.3358104565       -0.3141247460  CLST      90              1.0000000000
       451        91  DCM       C             -15.9827193720       -2.8420026630       -3.7102977829  CLST      91              1.0000000000
       452        91  DCM       H1            -16.5662102564       -3.7836226073       -3.7902835829  CLST      91              1.0000000000
       453        91  DCM       H2            -15.5137541584       -2.7486805698       -2.7085145366  CLST      91              1.0000000000
       454        91  DCM       CL1           -14.6990033514       -2.8423548770       -4.9548030255  CLST      91              1.0000000000
       455        91  DCM       CL2           -17.0757737349       -1.4513272203       -3.9667768938  CLST      91              1.0000000000
       456        92  DCM       C              -2.3268918566        3.3686663006       14.4791015746  CLST      92              1.0000000000
       457        92  DCM       H1             -2.5670482814        4.3601978565       14.9180665860  CLST      92              1.0000000000
       458        92  DCM       H2             -2.7646841474        3.2661009586       13.4637575398  CLST      92              1.0000000000
       459        92  DCM       CL1            -0.5511236806        3.1951803821       14.3672452103  CLST      92              1.0000000000
       460        92  DCM       CL2            -2.9940160956        2.0879981050       15.5325524746  CLST      92              1.0000000000
