* PRE_MLPOT:MONOMER_REPACK
*  DATE:     6/28/26      1:56:41      CREATED BY USER: boittier
*
       460  EXT
         1         1  DCM       C              -0.5341885996       -0.8628987498        1.1375842635  CLST      1               1.0000000000
         2         1  DCM       H1             -1.3578921614       -0.1212037962        1.2079692614  CLST      1               1.0000000000
         3         1  DCM       H2             -0.7625828059       -1.6437193637        0.3814075675  CLST      1               1.0000000000
         4         1  DCM       CL1             0.9698449308       -0.0190189611        0.6652327338  CLST      1               1.0000000000
         5         1  DCM       CL2            -0.3163717249       -1.6449572576        2.7304894090  CLST      1               1.0000000000
         6         2  DCM       C              -2.2349036654        1.1377715608        0.2772516138  CLST      2               1.0000000000
         7         2  DCM       H1             -1.6423699861        2.0168739579        0.6085802652  CLST      2               1.0000000000
         8         2  DCM       H2             -2.9759769203        0.8419340444        1.0493487249  CLST      2               1.0000000000
         9         2  DCM       CL1            -3.0993760326        1.5503459999       -1.2310034305  CLST      2               1.0000000000
        10         2  DCM       CL2            -1.1250597621       -0.2304413897       -0.0173046458  CLST      2               1.0000000000
        11         3  DCM       C              -1.8110056769        2.7418465596       -0.4983094249  CLST      3               1.0000000000
        12         3  DCM       H1             -2.0040862538        2.3613197872        0.5216703533  CLST      3               1.0000000000
        13         3  DCM       H2             -2.7377078893        3.1397787795       -0.9630630515  CLST      3               1.0000000000
        14         3  DCM       CL1            -0.5895135299        4.0478992562       -0.4131352109  CLST      3               1.0000000000
        15         3  DCM       CL2            -1.1829472103        1.4077682060       -1.5085658998  CLST      3               1.0000000000
        16         4  DCM       C              -2.1387825582        2.5029611094        1.7538360386  CLST      4               1.0000000000
        17         4  DCM       H1             -1.3769782359        2.9230721274        1.0636335866  CLST      4               1.0000000000
        18         4  DCM       H2             -1.7036108650        1.7014830181        2.3879547171  CLST      4               1.0000000000
        19         4  DCM       CL1            -3.4815616933        1.8186350889        0.7916100998  CLST      4               1.0000000000
        20         4  DCM       CL2            -2.7537985396        3.8095554293        2.8075961360  CLST      4               1.0000000000
        21         5  DCM       C              -1.3815777280        2.6682355413       -0.4062429563  CLST      5               1.0000000000
        22         5  DCM       H1             -0.8770847259        1.8780809972        0.1874866407  CLST      5               1.0000000000
        23         5  DCM       H2             -2.1038853183        3.2352209614        0.2184809484  CLST      5               1.0000000000
        24         5  DCM       CL1            -0.1475965525        3.7953531881       -1.0391985850  CLST      5               1.0000000000
        25         5  DCM       CL2            -2.2591534973        1.8995580219       -1.7601229241  CLST      5               1.0000000000
        26         6  DCM       C               3.5911535380        0.9252188267        2.5704599222  CLST      6               1.0000000000
        27         6  DCM       H1              4.2906353423        0.2046375303        2.0979838866  CLST      6               1.0000000000
        28         6  DCM       H2              3.2727583152        0.5661087780        3.5704269910  CLST      6               1.0000000000
        29         6  DCM       CL1             4.4093583109        2.5034443537        2.7550938874  CLST      6               1.0000000000
        30         6  DCM       CL2             2.1448160145        1.1050638840        1.5357895142  CLST      6               1.0000000000
        31         7  DCM       C               2.5577953833       -0.5994795473       -1.4550535406  CLST      7               1.0000000000
        32         7  DCM       H1              3.5783948746       -0.1652090536       -1.4030833353  CLST      7               1.0000000000
        33         7  DCM       H2              2.1164002614       -0.4603684883       -2.4629577048  CLST      7               1.0000000000
        34         7  DCM       CL1             2.6462657188       -2.3467551667       -1.0964338301  CLST      7               1.0000000000
        35         7  DCM       CL2             1.5151610767        0.2128798362       -0.2555558092  CLST      7               1.0000000000
        36         8  DCM       C              -2.5881281866        0.7855379585        0.5126467518  CLST      8               1.0000000000
        37         8  DCM       H1             -2.4512105738       -0.2145136359        0.9742164075  CLST      8               1.0000000000
        38         8  DCM       H2             -1.6320718718        1.3470442397        0.4852320421  CLST      8               1.0000000000
        39         8  DCM       CL1            -3.1680211291        0.5759995872       -1.1606815529  CLST      8               1.0000000000
        40         8  DCM       CL2            -3.7882402581        1.7116593672        1.4601181272  CLST      8               1.0000000000
        41         9  DCM       C              -0.6777939852        0.1019916239        2.4479365696  CLST      9               1.0000000000
        42         9  DCM       H1             -1.3764502022       -0.3226464713        3.1991415299  CLST      9               1.0000000000
        43         9  DCM       H2             -0.9076450827       -0.2745969372        1.4292405327  CLST      9               1.0000000000
        44         9  DCM       CL1            -0.8247569146        1.8823725909        2.4493739337  CLST      9               1.0000000000
        45         9  DCM       CL2             0.9919425550       -0.3674205291        2.8746692681  CLST      9               1.0000000000
        46        10  DCM       C              -0.4059194708        2.6195496657        2.4357318063  CLST      10              1.0000000000
        47        10  DCM       H1              0.6057282155        2.7774119266        2.0077421533  CLST      10              1.0000000000
        48        10  DCM       H2             -1.1347930491        2.3377399755        1.6467716523  CLST      10              1.0000000000
        49        10  DCM       CL1            -0.3175872835        1.3131180425        3.6482989885  CLST      10              1.0000000000
        50        10  DCM       CL2            -0.9524011969        4.1296811822        3.2133697052  CLST      10              1.0000000000
        51        11  DCM       C              -1.5014086970       -1.3008606200        1.2442334413  CLST      11              1.0000000000
        52        11  DCM       H1             -2.0933070460       -1.6462371026        2.1185438239  CLST      11              1.0000000000
        53        11  DCM       H2             -0.4888611404       -1.7568595989        1.2405138291  CLST      11              1.0000000000
        54        11  DCM       CL1            -2.3535028749       -1.7650619852       -0.2569779048  CLST      11              1.0000000000
        55        11  DCM       CL2            -1.3362174073        0.4770562008        1.3212424975  CLST      11              1.0000000000
        56        12  DCM       C               2.4770544156        2.8129106962       -1.7735899936  CLST      12              1.0000000000
        57        12  DCM       H1              3.4156946167        2.9625693104       -2.3476464842  CLST      12              1.0000000000
        58        12  DCM       H2              2.1700221677        3.7482236409       -1.2592668550  CLST      12              1.0000000000
        59        12  DCM       CL1             1.1807292439        2.3124989918       -2.8981035781  CLST      12              1.0000000000
        60        12  DCM       CL2             2.7412057372        1.5403867917       -0.5471040056  CLST      12              1.0000000000
        61        13  DCM       C               2.0662958251        2.8526109396        1.2622454887  CLST      13              1.0000000000
        62        13  DCM       H1              1.0503693287        2.7869277780        0.8205102518  CLST      13              1.0000000000
        63        13  DCM       H2              2.7085009228        3.5476731353        0.6815971683  CLST      13              1.0000000000
        64        13  DCM       CL1             1.9370082256        3.4518247563        2.9403754936  CLST      13              1.0000000000
        65        13  DCM       CL2             2.8184198900        1.2327129189        1.2522464654  CLST      13              1.0000000000
        66        14  DCM       C               2.2649721114        1.1446265854       -1.5748744804  CLST      14              1.0000000000
        67        14  DCM       H1              3.1088821550        0.4608131912       -1.3451323024  CLST      14              1.0000000000
        68        14  DCM       H2              2.5950214400        2.2042172273       -1.5425817861  CLST      14              1.0000000000
        69        14  DCM       CL1             1.6407823657        0.7764175422       -3.2090153081  CLST      14              1.0000000000
        70        14  DCM       CL2             0.9732207179        0.8972582971       -0.3641565210  CLST      14              1.0000000000
        71        15  DCM       C              -1.2922305257        0.3388975959       -1.8564643649  CLST      15              1.0000000000
        72        15  DCM       H1             -1.0447390051        1.2239230020       -2.4805766877  CLST      15              1.0000000000
        73        15  DCM       H2             -1.3451188721       -0.5826255683       -2.4740841790  CLST      15              1.0000000000
        74        15  DCM       CL1            -0.0293341403        0.1346334495       -0.6083279453  CLST      15              1.0000000000
        75        15  DCM       CL2            -2.8742895637        0.6080808752       -1.0717078387  CLST      15              1.0000000000
        76        16  DCM       C               2.4966148466       -1.4215040289        1.1024269746  CLST      16              1.0000000000
        77        16  DCM       H1              2.0194985249       -2.3425197872        0.7082243716  CLST      16              1.0000000000
        78        16  DCM       H2              3.4300413921       -1.6716287336        1.6477643761  CLST      16              1.0000000000
        79        16  DCM       CL1             2.8861828494       -0.3317132060       -0.2602879850  CLST      16              1.0000000000
        80        16  DCM       CL2             1.3655207899       -0.6107111631        2.2236430137  CLST      16              1.0000000000
        81        17  DCM       C              -2.4375684816       -0.6787819900       -1.5596070168  CLST      17              1.0000000000
        82        17  DCM       H1             -3.2990462230       -0.2268890217       -2.0943410755  CLST      17              1.0000000000
        83        17  DCM       H2             -1.4866723498       -0.1805061376       -1.8453307056  CLST      17              1.0000000000
        84        17  DCM       CL1            -2.6893629989       -0.4945880174        0.2001356374  CLST      17              1.0000000000
        85        17  DCM       CL2            -2.3317015830       -2.4138252484       -1.9775137179  CLST      17              1.0000000000
        86        18  DCM       C              -2.2617499779       -2.3701732384        1.2032796429  CLST      18              1.0000000000
        87        18  DCM       H1             -1.6593631895       -1.7385725744        0.5157369269  CLST      18              1.0000000000
        88        18  DCM       H2             -3.1828257099       -1.8384527641        1.5223390356  CLST      18              1.0000000000
        89        18  DCM       CL1            -2.7190752898       -3.8773237485        0.3591946946  CLST      18              1.0000000000
        90        18  DCM       CL2            -1.2815015163       -2.7657982549        2.6446919416  CLST      18              1.0000000000
        91        19  DCM       C               2.2989405961       -2.4488292669        0.2803051473  CLST      19              1.0000000000
        92        19  DCM       H1              1.9961001025       -3.0820613259        1.1399838008  CLST      19              1.0000000000
        93        19  DCM       H2              1.6906288253       -2.6838139284       -0.6172666176  CLST      19              1.0000000000
        94        19  DCM       CL1             2.0587387593       -0.7314605073        0.7081671035  CLST      19              1.0000000000
        95        19  DCM       CL2             4.0221785623       -2.7459237281       -0.0891409594  CLST      19              1.0000000000
        96        20  DCM       C               2.2453065726        2.4676893401        2.9713142645  CLST      20              1.0000000000
        97        20  DCM       H1              3.2607133840        2.0548364707        3.1447795689  CLST      20              1.0000000000
        98        20  DCM       H2              2.2476849798        3.1937531265        2.1304617465  CLST      20              1.0000000000
        99        20  DCM       CL1             1.1382082757        1.1207414340        2.5816425394  CLST      20              1.0000000000
       100        20  DCM       CL2             1.6942027176        3.2948727755        4.4565007581  CLST      20              1.0000000000
       101        21  DCM       C               1.7532604425       -0.6029755089        0.4130851587  CLST      21              1.0000000000
       102        21  DCM       H1              2.3037595607        0.3611194908        0.3874381490  CLST      21              1.0000000000
       103        21  DCM       H2              1.0342159831       -0.6292599063        1.2585452091  CLST      21              1.0000000000
       104        21  DCM       CL1             0.8551700957       -0.7989328213       -1.1181376368  CLST      21              1.0000000000
       105        21  DCM       CL2             2.9234511764       -1.9388007768        0.6089669257  CLST      21              1.0000000000
       106        22  DCM       C              -1.3533814889       -2.8546995460       -1.4442535183  CLST      22              1.0000000000
       107        22  DCM       H1             -1.9849153957       -3.6908210341       -1.0777055535  CLST      22              1.0000000000
       108        22  DCM       H2             -1.7064909851       -2.4899082562       -2.4321141980  CLST      22              1.0000000000
       109        22  DCM       CL1            -1.4242999525       -1.5113085575       -0.2661783582  CLST      22              1.0000000000
       110        22  DCM       CL2             0.3306633579       -3.4306237129       -1.6062384500  CLST      22              1.0000000000
       111        23  DCM       C               0.7362776890        1.8713297567       -2.6381967646  CLST      23              1.0000000000
       112        23  DCM       H1              0.7025784226        2.9111407678       -2.2572387580  CLST      23              1.0000000000
       113        23  DCM       H2              1.7728461773        1.5850141489       -2.9260077545  CLST      23              1.0000000000
       114        23  DCM       CL1             0.1616403165        0.7641816737       -1.3583161683  CLST      23              1.0000000000
       115        23  DCM       CL2            -0.3203545429        1.7387084875       -4.0743559972  CLST      23              1.0000000000
       116        24  DCM       C              -0.2131687463        1.2973635456        0.2492597058  CLST      24              1.0000000000
       117        24  DCM       H1              0.0903550490        0.9783267758       -0.7701347008  CLST      24              1.0000000000
       118        24  DCM       H2              0.6750912179        1.4555529345        0.8951125324  CLST      24              1.0000000000
       119        24  DCM       CL1            -1.1288744105        2.8269334853        0.1334989588  CLST      24              1.0000000000
       120        24  DCM       CL2            -1.2425203220        0.0289518217        0.9720975455  CLST      24              1.0000000000
       121        25  DCM       C               0.9876753164        0.9523613275        2.1263423261  CLST      25              1.0000000000
       122        25  DCM       H1              1.1119429056        1.7985391817        1.4186305952  CLST      25              1.0000000000
       123        25  DCM       H2              1.9736360944        0.5766541160        2.4747352574  CLST      25              1.0000000000
       124        25  DCM       CL1             0.0483355128        1.5082164246        3.5404520637  CLST      25              1.0000000000
       125        25  DCM       CL2             0.1134811688       -0.3739268218        1.3072180141  CLST      25              1.0000000000
       126        26  DCM       C              -1.2555642976       -2.3086005251       -0.1024194818  CLST      26              1.0000000000
       127        26  DCM       H1             -0.4527155422       -2.1253594682       -0.8473237757  CLST      26              1.0000000000
       128        26  DCM       H2             -1.0027608389       -3.1717514794        0.5488882502  CLST      26              1.0000000000
       129        26  DCM       CL1            -1.4505190679       -0.8491958177        0.9102303917  CLST      26              1.0000000000
       130        26  DCM       CL2            -2.7830629331       -2.6532181762       -0.9649157722  CLST      26              1.0000000000
       131        27  DCM       C              -2.6391449263       -0.2060892390       -0.6936327656  CLST      27              1.0000000000
       132        27  DCM       H1             -1.7320658383       -0.4085366070       -0.0861922497  CLST      27              1.0000000000
       133        27  DCM       H2             -3.4571114228       -0.9040241217       -0.4220687452  CLST      27              1.0000000000
       134        27  DCM       CL1            -3.1837482478        1.4630025214       -0.3846885849  CLST      27              1.0000000000
       135        27  DCM       CL2            -2.2464737262       -0.3996623271       -2.4269246257  CLST      27              1.0000000000
       136        28  DCM       C              -2.0645548146        1.6781278605       -0.5725798386  CLST      28              1.0000000000
       137        28  DCM       H1             -1.4591897665        2.2497140479        0.1633513440  CLST      28              1.0000000000
       138        28  DCM       H2             -1.7933471404        1.9550222253       -1.6129286522  CLST      28              1.0000000000
       139        28  DCM       CL1            -1.7613411072       -0.0673639143       -0.3385914690  CLST      28              1.0000000000
       140        28  DCM       CL2            -3.7965765070        2.0345305571       -0.3026128215  CLST      28              1.0000000000
       141        29  DCM       C               0.7214525193        2.3803470162        0.1326435700  CLST      29              1.0000000000
       142        29  DCM       H1              1.1897945627        1.4129137289       -0.1461363158  CLST      29              1.0000000000
       143        29  DCM       H2             -0.3720341749        2.2646859470        0.2870371494  CLST      29              1.0000000000
       144        29  DCM       CL1             1.4654179354        2.9723999292        1.6464929381  CLST      29              1.0000000000
       145        29  DCM       CL2             0.9992680402        3.5611161166       -1.1801506700  CLST      29              1.0000000000
       146        30  DCM       C              -2.7341527810       -0.2156182707       -2.6404121253  CLST      30              1.0000000000
       147        30  DCM       H1             -3.5475553109        0.5388779664       -2.5843458634  CLST      30              1.0000000000
       148        30  DCM       H2             -1.8326744577        0.2056749357       -3.1340608702  CLST      30              1.0000000000
       149        30  DCM       CL1            -2.3038853060       -0.7349981219       -0.9844697034  CLST      30              1.0000000000
       150        30  DCM       CL2            -3.3105658760       -1.6211830860       -3.5822320401  CLST      30              1.0000000000
       151        31  DCM       C              -1.2895025497        0.9578114374       -1.8885488259  CLST      31              1.0000000000
       152        31  DCM       H1             -0.8862597618        1.3861549437       -0.9468657918  CLST      31              1.0000000000
       153        31  DCM       H2             -0.4826164640        0.8181903704       -2.6391913806  CLST      31              1.0000000000
       154        31  DCM       CL1            -2.0430805431       -0.6247930140       -1.5367190136  CLST      31              1.0000000000
       155        31  DCM       CL2            -2.5139290619        2.0745937040       -2.5553378548  CLST      31              1.0000000000
       156        32  DCM       C              -2.7351121976       -0.6241370949       -0.4708901779  CLST      32              1.0000000000
       157        32  DCM       H1             -3.5958826009       -0.0835132536       -0.0245863352  CLST      32              1.0000000000
       158        32  DCM       H2             -1.9178811916        0.0802808535       -0.7358010527  CLST      32              1.0000000000
       159        32  DCM       CL1            -2.1148250979       -1.8112445513        0.7127562137  CLST      32              1.0000000000
       160        32  DCM       CL2            -3.2755975430       -1.4685147982       -1.9504139311  CLST      32              1.0000000000
       161        33  DCM       C               1.5608663145       -2.8324241508        2.9603010213  CLST      33              1.0000000000
       162        33  DCM       H1              0.6122240541       -2.3722056416        3.3051909325  CLST      33              1.0000000000
       163        33  DCM       H2              2.3370086141       -2.0578730041        2.7943869633  CLST      33              1.0000000000
       164        33  DCM       CL1             2.1417829766       -3.9765649187        4.2001534238  CLST      33              1.0000000000
       165        33  DCM       CL2             1.2623962914       -3.7066451248        1.4321948060  CLST      33              1.0000000000
       166        34  DCM       C               1.9439658471       -0.1221363413       -0.1747124084  CLST      34              1.0000000000
       167        34  DCM       H1              2.2437531807       -0.2349625912       -1.2378415352  CLST      34              1.0000000000
       168        34  DCM       H2              2.7750648891       -0.4032947479        0.5058867698  CLST      34              1.0000000000
       169        34  DCM       CL1             1.4991037351        1.5833048183        0.1228820845  CLST      34              1.0000000000
       170        34  DCM       CL2             0.5390593842       -1.1796176227        0.1520965899  CLST      34              1.0000000000
       171        35  DCM       C               2.4325069108       -0.5064592388       -2.1009307311  CLST      35              1.0000000000
       172        35  DCM       H1              1.9789545022        0.4951046344       -2.2524940761  CLST      35              1.0000000000
       173        35  DCM       H2              2.3606570895       -1.1218206445       -3.0223410850  CLST      35              1.0000000000
       174        35  DCM       CL1             4.1543352815       -0.3026304332       -1.6674288234  CLST      35              1.0000000000
       175        35  DCM       CL2             1.5680996481       -1.3378970996       -0.7753418807  CLST      35              1.0000000000
       176        36  DCM       C               0.7492407831       -0.5579919532       -0.4238542813  CLST      36              1.0000000000
       177        36  DCM       H1              1.0632879387        0.3133391662        0.1918229340  CLST      36              1.0000000000
       178        36  DCM       H2              1.3228096578       -1.4669658903       -0.1462308716  CLST      36              1.0000000000
       179        36  DCM       CL1            -0.9925769341       -0.8638535884       -0.1587445316  CLST      36              1.0000000000
       180        36  DCM       CL2             1.0432131160       -0.1833597423       -2.1459808581  CLST      36              1.0000000000
       181        37  DCM       C               1.2556111327        1.1288360684        0.5915396415  CLST      37              1.0000000000
       182        37  DCM       H1              1.1238874502        1.6306577414       -0.3903006256  CLST      37              1.0000000000
       183        37  DCM       H2              1.8678314403        0.2078187180        0.4894076953  CLST      37              1.0000000000
       184        37  DCM       CL1             2.0771497697        2.2519282865        1.7118603286  CLST      37              1.0000000000
       185        37  DCM       CL2            -0.3496169422        0.6901742428        1.2424342683  CLST      37              1.0000000000
       186        38  DCM       C              -0.1802090333       -3.0370829082        1.3617105989  CLST      38              1.0000000000
       187        38  DCM       H1              0.0562802976       -4.0239312211        0.9066997675  CLST      38              1.0000000000
       188        38  DCM       H2             -0.9181554937       -3.1442963400        2.1825049545  CLST      38              1.0000000000
       189        38  DCM       CL1             1.3236633940       -2.3278930171        2.0146723057  CLST      38              1.0000000000
       190        38  DCM       CL2            -0.8518568749       -1.9654909209        0.0984353673  CLST      38              1.0000000000
       191        39  DCM       C               0.9734277293       -1.6274660591       -1.4117577160  CLST      39              1.0000000000
       192        39  DCM       H1              2.0320116868       -1.3249998484       -1.5544864427  CLST      39              1.0000000000
       193        39  DCM       H2              0.8449139239       -2.1846379204       -0.4594614989  CLST      39              1.0000000000
       194        39  DCM       CL1            -0.0422528639       -0.1589466441       -1.3710819904  CLST      39              1.0000000000
       195        39  DCM       CL2             0.4817398703       -2.6729417488       -2.7763138542  CLST      39              1.0000000000
       196        40  DCM       C              -0.3956225714       -0.6577595022       -2.0881208272  CLST      40              1.0000000000
       197        40  DCM       H1             -0.5948840340       -0.1384623843       -1.1283061432  CLST      40              1.0000000000
       198        40  DCM       H2              0.0044068430        0.0498601002       -2.8444130921  CLST      40              1.0000000000
       199        40  DCM       CL1            -1.9154010934       -1.3702185206       -2.6999949923  CLST      40              1.0000000000
       200        40  DCM       CL2             0.8029227213       -1.9474753274       -1.8033352649  CLST      40              1.0000000000
       201        41  DCM       C              -0.8756667636       -1.1109997955       -2.3639973413  CLST      41              1.0000000000
       202        41  DCM       H1             -1.3395133616       -1.9986672664       -1.8847647260  CLST      41              1.0000000000
       203        41  DCM       H2             -0.8451925282       -0.2487226918       -1.6657445965  CLST      41              1.0000000000
       204        41  DCM       CL1             0.7904390776       -1.5214714022       -2.8642234930  CLST      41              1.0000000000
       205        41  DCM       CL2            -1.8387450607       -0.6508706072       -3.7956451304  CLST      41              1.0000000000
       206        42  DCM       C               0.2805889874       -1.5253528746        1.9344236298  CLST      42              1.0000000000
       207        42  DCM       H1              0.7993057768       -1.5358134814        2.9163804575  CLST      42              1.0000000000
       208        42  DCM       H2              0.5392636638       -0.6138523959        1.3559167918  CLST      42              1.0000000000
       209        42  DCM       CL1             0.7767913345       -2.9652807491        1.0017914619  CLST      42              1.0000000000
       210        42  DCM       CL2            -1.4850878257       -1.5599168430        2.2048055142  CLST      42              1.0000000000
       211        43  DCM       C              -1.6755522914       -2.5978603681        2.7216198737  CLST      43              1.0000000000
       212        43  DCM       H1             -1.2059248944       -1.9325395334        3.4758325639  CLST      43              1.0000000000
       213        43  DCM       H2             -2.7215063390       -2.8415752610        3.0058840652  CLST      43              1.0000000000
       214        43  DCM       CL1            -1.6777627731       -1.7747207797        1.1348030951  CLST      43              1.0000000000
       215        43  DCM       CL2            -0.7339211027       -4.1130949086        2.6172355476  CLST      43              1.0000000000
       216        44  DCM       C               0.8258852996        2.1987230148        2.2285822760  CLST      44              1.0000000000
       217        44  DCM       H1             -0.0051240285        1.4868481645        2.4182227046  CLST      44              1.0000000000
       218        44  DCM       H2              0.4349842998        3.2142886556        2.0073400599  CLST      44              1.0000000000
       219        44  DCM       CL1             1.8725003678        2.2814498648        3.6757050549  CLST      44              1.0000000000
       220        44  DCM       CL2             1.7729545182        1.6223668691        0.8266219733  CLST      44              1.0000000000
       221        45  DCM       C               0.7756056369       -2.5360196866        1.4429125978  CLST      45              1.0000000000
       222        45  DCM       H1              1.3002793867       -2.4056606863        2.4112513774  CLST      45              1.0000000000
       223        45  DCM       H2              1.1835797654       -1.8490527321        0.6704984729  CLST      45              1.0000000000
       224        45  DCM       CL1             0.9875270381       -4.2221554921        0.8894244371  CLST      45              1.0000000000
       225        45  DCM       CL2            -0.9623745449       -2.1886831622        1.6759152601  CLST      45              1.0000000000
       226        46  DCM       C              -1.6675270635        2.1462220263       -1.0404401628  CLST      46              1.0000000000
       227        46  DCM       H1             -0.7829459401        1.5174611947       -1.2744010774  CLST      46              1.0000000000
       228        46  DCM       H2             -2.4572640339        1.5490450837       -0.5371501147  CLST      46              1.0000000000
       229        46  DCM       CL1            -1.1631105394        3.4770912437        0.0423703175  CLST      46              1.0000000000
       230        46  DCM       CL2            -2.3172782648        2.8143687617       -2.5657206899  CLST      46              1.0000000000
       231        47  DCM       C              -0.0378847635        1.6327082560        2.9927331185  CLST      47              1.0000000000
       232        47  DCM       H1             -0.0825548717        1.4184414324        4.0801873112  CLST      47              1.0000000000
       233        47  DCM       H2             -0.1762697438        2.7154570112        2.7926254280  CLST      47              1.0000000000
       234        47  DCM       CL1            -1.3222191330        0.7089061854        2.1671802197  CLST      47              1.0000000000
       235        47  DCM       CL2             1.5542860030        1.1317625448        2.3659246969  CLST      47              1.0000000000
       236        48  DCM       C               0.8998975645        1.4921197990        0.2692645627  CLST      48              1.0000000000
       237        48  DCM       H1              0.6219243429        0.4693178252        0.6023280862  CLST      48              1.0000000000
       238        48  DCM       H2              0.4261049404        2.2659770998        0.9092357695  CLST      48              1.0000000000
       239        48  DCM       CL1             2.6764827378        1.6677309496        0.3633221591  CLST      48              1.0000000000
       240        48  DCM       CL2             0.3532362694        1.7193882847       -1.4172756954  CLST      48              1.0000000000
       241        49  DCM       C               1.7839996217       -0.2863271207        2.0276440082  CLST      49              1.0000000000
       242        49  DCM       H1              1.8165946409        0.8238640330        2.0112722008  CLST      49              1.0000000000
       243        49  DCM       H2              2.6668047615       -0.7200095991        1.5131737838  CLST      49              1.0000000000
       244        49  DCM       CL1             1.7673480768       -0.8434602251        3.7265996622  CLST      49              1.0000000000
       245        49  DCM       CL2             0.2949442958       -0.8254633482        1.1998026008  CLST      49              1.0000000000
       246        50  DCM       C               2.8389595488        1.9310494933       -2.8071375559  CLST      50              1.0000000000
       247        50  DCM       H1              2.6229365131        1.1131092052       -3.5244736932  CLST      50              1.0000000000
       248        50  DCM       H2              3.6428194328        2.5949957635       -3.1895292527  CLST      50              1.0000000000
       249        50  DCM       CL1             1.3499891460        2.8870825506       -2.5797197354  CLST      50              1.0000000000
       250        50  DCM       CL2             3.3624012227        1.2286942807       -1.2500810954  CLST      50              1.0000000000
       251        51  DCM       C              -1.3432630509        2.3533204321        0.8246838546  CLST      51              1.0000000000
       252        51  DCM       H1             -2.3086116356        2.8545413325        0.6012197942  CLST      51              1.0000000000
       253        51  DCM       H2             -0.6724302439        3.0214386301        1.4042641574  CLST      51              1.0000000000
       254        51  DCM       CL1            -1.6649929580        0.8757427660        1.7763044251  CLST      51              1.0000000000
       255        51  DCM       CL2            -0.5374747735        1.9156391861       -0.7090591500  CLST      51              1.0000000000
       256        52  DCM       C              -2.3826140209       -1.3031096669        2.8476949057  CLST      52              1.0000000000
       257        52  DCM       H1             -1.3674369708       -1.7457663863        2.9258232755  CLST      52              1.0000000000
       258        52  DCM       H2             -2.9663334387       -1.7835616257        2.0359107499  CLST      52              1.0000000000
       259        52  DCM       CL1            -3.2389958234       -1.5354594218        4.3983507795  CLST      52              1.0000000000
       260        52  DCM       CL2            -2.2400475280        0.4398821495        2.4870741401  CLST      52              1.0000000000
       261        53  DCM       C               2.5465931972        0.2139466309       -2.7745047972  CLST      53              1.0000000000
       262        53  DCM       H1              3.1367866316        0.0052353800       -1.8575001303  CLST      53              1.0000000000
       263        53  DCM       H2              1.6629288400       -0.4550140007       -2.8422156388  CLST      53              1.0000000000
       264        53  DCM       CL1             3.5839707202       -0.0523304190       -4.2061661618  CLST      53              1.0000000000
       265        53  DCM       CL2             1.9924830874        1.9117440376       -2.7241102877  CLST      53              1.0000000000
       266        54  DCM       C               2.8245551459       -0.0189015890        2.4655400634  CLST      54              1.0000000000
       267        54  DCM       H1              1.9887271306        0.4847406406        2.9935452279  CLST      54              1.0000000000
       268        54  DCM       H2              3.3176696791       -0.7651341400        3.1225009699  CLST      54              1.0000000000
       269        54  DCM       CL1             4.0248960576        1.2104009475        1.9767620733  CLST      54              1.0000000000
       270        54  DCM       CL2             2.1833684784       -0.8536586866        1.0227256020  CLST      54              1.0000000000
       271        55  DCM       C               2.9904223707       -2.7785227596       -1.8540638354  CLST      55              1.0000000000
       272        55  DCM       H1              3.4669117659       -3.7811710709       -1.8967528565  CLST      55              1.0000000000
       273        55  DCM       H2              3.5254555375       -2.1100917123       -1.1464422800  CLST      55              1.0000000000
       274        55  DCM       CL1             3.0263517999       -2.0454894097       -3.4838297741  CLST      55              1.0000000000
       275        55  DCM       CL2             1.2976910076       -2.9633222279       -1.3105860341  CLST      55              1.0000000000
       276        56  DCM       C               3.5185515360       -0.8085274424        0.4680016471  CLST      56              1.0000000000
       277        56  DCM       H1              3.5241629048        0.0419365157       -0.2464824928  CLST      56              1.0000000000
       278        56  DCM       H2              2.5449924743       -1.3426889017        0.4499862140  CLST      56              1.0000000000
       279        56  DCM       CL1             4.8132475762       -1.9498993700        0.0056269590  CLST      56              1.0000000000
       280        56  DCM       CL2             3.8085827278       -0.1817039071        2.1181909666  CLST      56              1.0000000000
       281        57  DCM       C               0.6681168558       -2.6814352221       -2.4777582766  CLST      57              1.0000000000
       282        57  DCM       H1             -0.3506967667       -2.8966707046       -2.8602878496  CLST      57              1.0000000000
       283        57  DCM       H2              0.6436985301       -2.4408435518       -1.3935990852  CLST      57              1.0000000000
       284        57  DCM       CL1             1.6985325291       -4.1182166834       -2.7332523664  CLST      57              1.0000000000
       285        57  DCM       CL2             1.3398470339       -1.2844772971       -3.3649536988  CLST      57              1.0000000000
       286        58  DCM       C              -3.0324038712       -1.7824896584       -1.9098414034  CLST      58              1.0000000000
       287        58  DCM       H1             -3.0232313638       -1.8420123652       -3.0178371806  CLST      58              1.0000000000
       288        58  DCM       H2             -2.8355679394       -0.7452743403       -1.5631389809  CLST      58              1.0000000000
       289        58  DCM       CL1            -4.6372003505       -2.3000108200       -1.3177027983  CLST      58              1.0000000000
       290        58  DCM       CL2            -1.7663271629       -2.8641461982       -1.2595528946  CLST      58              1.0000000000
       291        59  DCM       C               0.8813825833        1.6760617435       -3.0893328749  CLST      59              1.0000000000
       292        59  DCM       H1             -0.2007855954        1.5090012429       -2.9046201663  CLST      59              1.0000000000
       293        59  DCM       H2              1.3571395854        0.7664939012       -3.5118408344  CLST      59              1.0000000000
       294        59  DCM       CL1             1.0816573107        3.0226495605       -4.2472088357  CLST      59              1.0000000000
       295        59  DCM       CL2             1.6786138098        2.0874543347       -1.5440638835  CLST      59              1.0000000000
       296        60  DCM       C              -0.2787805054       -3.3758429526       -0.4017177687  CLST      60              1.0000000000
       297        60  DCM       H1              0.7774242776       -3.5301985551       -0.7016160942  CLST      60              1.0000000000
       298        60  DCM       H2             -0.6530786224       -4.2382797682        0.1881005842  CLST      60              1.0000000000
       299        60  DCM       CL1            -0.3848647370       -1.8987668649        0.5941545281  CLST      60              1.0000000000
       300        60  DCM       CL2            -1.2825491519       -3.1915005553       -1.8667314828  CLST      60              1.0000000000
       301        61  DCM       C               1.7168805863       -1.6048216696       -1.1077371595  CLST      61              1.0000000000
       302        61  DCM       H1              1.5509811087       -0.5104926550       -1.0208460041  CLST      61              1.0000000000
       303        61  DCM       H2              2.1844560814       -2.0111306503       -0.1860748564  CLST      61              1.0000000000
       304        61  DCM       CL1             0.1431986478       -2.4122669583       -1.3672795342  CLST      61              1.0000000000
       305        61  DCM       CL2             2.7966627015       -1.9244266536       -2.4963970725  CLST      61              1.0000000000
       306        62  DCM       C               2.3817794753        2.3607972391        0.7785606253  CLST      62              1.0000000000
       307        62  DCM       H1              3.0093311682        3.1997543240        1.1520858203  CLST      62              1.0000000000
       308        62  DCM       H2              2.3299502930        2.3676720343       -0.3285142923  CLST      62              1.0000000000
       309        62  DCM       CL1             3.0955582983        0.8167892961        1.3276078567  CLST      62              1.0000000000
       310        62  DCM       CL2             0.7320267232        2.5327349711        1.4442105214  CLST      62              1.0000000000
       311        63  DCM       C               0.4644479254       -0.7742931460       -2.3878472743  CLST      63              1.0000000000
       312        63  DCM       H1              0.0235051773        0.2407512513       -2.2965314027  CLST      63              1.0000000000
       313        63  DCM       H2              0.6897518061       -1.0166110203       -3.4473266121  CLST      63              1.0000000000
       314        63  DCM       CL1             1.9817880190       -0.8365480373       -1.4465126247  CLST      63              1.0000000000
       315        63  DCM       CL2            -0.6957913699       -1.9731987812       -1.7485263279  CLST      63              1.0000000000
       316        64  DCM       C              -0.2188516552       -0.4622807006        2.7596761426  CLST      64              1.0000000000
       317        64  DCM       H1              0.3371226304       -1.2018322681        3.3729235986  CLST      64              1.0000000000
       318        64  DCM       H2              0.4403912681        0.3772934968        2.4562543458  CLST      64              1.0000000000
       319        64  DCM       CL1            -0.8434353874       -1.2680033202        1.2910545896  CLST      64              1.0000000000
       320        64  DCM       CL2            -1.5789951860        0.1885572718        3.7195711637  CLST      64              1.0000000000
       321        65  DCM       C              -1.1362023382        0.1986322591       -1.0220012866  CLST      65              1.0000000000
       322        65  DCM       H1             -1.4527477961        0.1372098217        0.0399689143  CLST      65              1.0000000000
       323        65  DCM       H2             -1.0223722556       -0.8141104331       -1.4616867238  CLST      65              1.0000000000
       324        65  DCM       CL1            -2.3705603151        1.0920682330       -1.9545167469  CLST      65              1.0000000000
       325        65  DCM       CL2             0.4290079158        1.0575517168       -1.1140169970  CLST      65              1.0000000000
       326        66  DCM       C              -0.8041084471        0.6330371852        2.8805154478  CLST      66              1.0000000000
       327        66  DCM       H1             -1.3822888752        1.5721912010        2.9993453107  CLST      66              1.0000000000
       328        66  DCM       H2              0.0564560348        0.7832817559        2.1968835716  CLST      66              1.0000000000
       329        66  DCM       CL1            -0.1925763053        0.1200721202        4.4760570144  CLST      66              1.0000000000
       330        66  DCM       CL2            -1.8702741419       -0.6305280419        2.2041879336  CLST      66              1.0000000000
       331        67  DCM       C              -2.9082812876        2.7058555432       -2.5967933724  CLST      67              1.0000000000
       332        67  DCM       H1             -3.3434265628        1.9459105286       -3.2788748292  CLST      67              1.0000000000
       333        67  DCM       H2             -3.6117568297        3.5521730595       -2.4467542454  CLST      67              1.0000000000
       334        67  DCM       CL1            -2.5694415709        1.9431009295       -1.0175263625  CLST      67              1.0000000000
       335        67  DCM       CL2            -1.3879173212        3.3255002246       -3.3026405045  CLST      67              1.0000000000
       336        68  DCM       C              -3.6282125301       -0.0869871239       -0.3671093065  CLST      68              1.0000000000
       337        68  DCM       H1             -4.0433918124       -0.5021538656       -1.3062076917  CLST      68              1.0000000000
       338        68  DCM       H2             -4.4163590788        0.4206907490        0.2311186949  CLST      68              1.0000000000
       339        68  DCM       CL1            -2.9447057223       -1.4281023083        0.5927134018  CLST      68              1.0000000000
       340        68  DCM       CL2            -2.3488275934        1.0933648765       -0.7738627022  CLST      68              1.0000000000
       341        69  DCM       C              -3.2345750102        0.7932720050        2.0810184329  CLST      69              1.0000000000
       342        69  DCM       H1             -3.8161823351        1.0818837298        2.9815612559  CLST      69              1.0000000000
       343        69  DCM       H2             -3.1464889048        1.6470716033        1.3779089625  CLST      69              1.0000000000
       344        69  DCM       CL1            -1.5978733956        0.2743669416        2.5768129827  CLST      69              1.0000000000
       345        69  DCM       CL2            -4.0646515406       -0.5553345787        1.2538504774  CLST      69              1.0000000000
       346        70  DCM       C               0.7833910345       -3.0781517732        1.7038480512  CLST      70              1.0000000000
       347        70  DCM       H1              0.3506962735       -2.0858354403        1.9487930670  CLST      70              1.0000000000
       348        70  DCM       H2              0.0047137638       -3.8701063278        1.7245136792  CLST      70              1.0000000000
       349        70  DCM       CL1             2.0478219619       -3.4698687498        2.9035797215  CLST      70              1.0000000000
       350        70  DCM       CL2             1.5026751667       -3.0086873942        0.0693751635  CLST      70              1.0000000000
       351        71  DCM       C               0.3220694653        0.6485818689       -2.6371907744  CLST      71              1.0000000000
       352        71  DCM       H1              0.1311918961       -0.2727074567       -3.2270131545  CLST      71              1.0000000000
       353        71  DCM       H2              0.5422481024        0.4066392787       -1.5755476344  CLST      71              1.0000000000
       354        71  DCM       CL1             1.7240861604        1.5067124041       -3.3393353361  CLST      71              1.0000000000
       355        71  DCM       CL2            -1.1282106944        1.6917954056       -2.7059153954  CLST      71              1.0000000000
       356        72  DCM       C               0.1835933306       -2.6851458267       -0.7733287987  CLST      72              1.0000000000
       357        72  DCM       H1              0.5074480354       -1.9504972705       -1.5397203024  CLST      72              1.0000000000
       358        72  DCM       H2              0.7113770297       -2.5138856446        0.1889028581  CLST      72              1.0000000000
       359        72  DCM       CL1            -1.5756608897       -2.5090391130       -0.5114705681  CLST      72              1.0000000000
       360        72  DCM       CL2             0.5542647250       -4.3343005620       -1.3566484552  CLST      72              1.0000000000
       361        73  DCM       C              -1.0308915784       -2.3079936040        0.2787722568  CLST      73              1.0000000000
       362        73  DCM       H1             -0.2553718300       -1.6280396974       -0.1357997876  CLST      73              1.0000000000
       363        73  DCM       H2             -0.7430133457       -3.3705020314        0.1362369816  CLST      73              1.0000000000
       364        73  DCM       CL1            -1.2168160867       -1.9848870711        2.0265927605  CLST      73              1.0000000000
       365        73  DCM       CL2            -2.5794947711       -1.9975663781       -0.5571026873  CLST      73              1.0000000000
       366        74  DCM       C               2.9994419459       -0.5456223396       -1.4337263571  CLST      74              1.0000000000
       367        74  DCM       H1              3.9685527543       -0.4924656714       -0.8963701207  CLST      74              1.0000000000
       368        74  DCM       H2              3.0614097758       -1.2415161694       -2.2970024759  CLST      74              1.0000000000
       369        74  DCM       CL1             1.7409739499       -1.1291539250       -0.3079212236  CLST      74              1.0000000000
       370        74  DCM       CL2             2.5706315277        1.0855929219       -2.0261029745  CLST      74              1.0000000000
       371        75  DCM       C              -0.3106370812       -2.4012388268        0.9215824358  CLST      75              1.0000000000
       372        75  DCM       H1              0.7568815928       -2.0951618631        0.9069553004  CLST      75              1.0000000000
       373        75  DCM       H2             -0.4127906740       -3.4879788273        1.1255903898  CLST      75              1.0000000000
       374        75  DCM       CL1            -1.1617353648       -1.4846676036        2.1980090068  CLST      75              1.0000000000
       375        75  DCM       CL2            -1.0379921317       -2.0367666843       -0.6681499301  CLST      75              1.0000000000
       376        76  DCM       C              -3.4749731048        1.2923739507       -2.5032794810  CLST      76              1.0000000000
       377        76  DCM       H1             -3.6885015809        1.7281192190       -1.5049519606  CLST      76              1.0000000000
       378        76  DCM       H2             -4.0281163437        1.8327526711       -3.3003734091  CLST      76              1.0000000000
       379        76  DCM       CL1            -1.7221686028        1.4124798256       -2.8298850513  CLST      76              1.0000000000
       380        76  DCM       CL2            -3.9742427291       -0.4239141443       -2.5016561223  CLST      76              1.0000000000
       381        77  DCM       C               0.9401980615       -0.3661108810        0.4175021765  CLST      77              1.0000000000
       382        77  DCM       H1              1.3451747253        0.5944619029        0.8010382463  CLST      77              1.0000000000
       383        77  DCM       H2              0.1167874796       -0.1897294463       -0.3064922743  CLST      77              1.0000000000
       384        77  DCM       CL1             0.3157697261       -1.3285443795        1.7872743634  CLST      77              1.0000000000
       385        77  DCM       CL2             2.2503006497       -1.2638620418       -0.3996729402  CLST      77              1.0000000000
       386        78  DCM       C               1.7022970353       -1.5150579820       -3.1176237932  CLST      78              1.0000000000
       387        78  DCM       H1              0.6024413614       -1.6118492732       -3.2389608710  CLST      78              1.0000000000
       388        78  DCM       H2              2.2409820638       -2.0284089033       -3.9418639815  CLST      78              1.0000000000
       389        78  DCM       CL1             2.1397821029        0.2186085994       -3.1280437862  CLST      78              1.0000000000
       390        78  DCM       CL2             2.1835303234       -2.2518963397       -1.5613449090  CLST      78              1.0000000000
       391        79  DCM       C              -1.8879285106       -1.7024579575       -1.9769937012  CLST      79              1.0000000000
       392        79  DCM       H1             -2.3187639910       -0.9674835538       -2.6888175327  CLST      79              1.0000000000
       393        79  DCM       H2             -1.9238887161       -1.3192161174       -0.9351709682  CLST      79              1.0000000000
       394        79  DCM       CL1            -2.8265094909       -3.2198738706       -2.0679796517  CLST      79              1.0000000000
       395        79  DCM       CL2            -0.1863893104       -2.0230034576       -2.4232424724  CLST      79              1.0000000000
       396        80  DCM       C              -1.5625180137       -1.1465049736        2.0640237048  CLST      80              1.0000000000
       397        80  DCM       H1             -1.9130664885       -2.1613347327        1.7840297015  CLST      80              1.0000000000
       398        80  DCM       H2             -2.0698831353       -0.7910875028        2.9866880365  CLST      80              1.0000000000
       399        80  DCM       CL1             0.2019001371       -1.1990955694        2.3510687298  CLST      80              1.0000000000
       400        80  DCM       CL2            -1.9282823215       -0.0162710164        0.7278184613  CLST      80              1.0000000000
       401        81  DCM       C               0.0985203919        1.4986137563        2.0865163116  CLST      81              1.0000000000
       402        81  DCM       H1             -0.9229738278        1.4399283878        1.6541186653  CLST      81              1.0000000000
       403        81  DCM       H2              0.1421693457        2.2403732072        2.9117447500  CLST      81              1.0000000000
       404        81  DCM       CL1             0.5487349585       -0.1085266410        2.7270861429  CLST      81              1.0000000000
       405        81  DCM       CL2             1.2468936359        1.9854208860        0.8045777393  CLST      81              1.0000000000
       406        82  DCM       C               2.7019943649       -2.4011076983       -0.6272799582  CLST      82              1.0000000000
       407        82  DCM       H1              3.4880200413       -2.5191112413       -1.4026556366  CLST      82              1.0000000000
       408        82  DCM       H2              1.7321142305       -2.1110202471       -1.0839710751  CLST      82              1.0000000000
       409        82  DCM       CL1             2.4982761152       -3.9536409759        0.2342829636  CLST      82              1.0000000000
       410        82  DCM       CL2             3.2090355010       -1.1323214488        0.5258299164  CLST      82              1.0000000000
       411        83  DCM       C               1.3087254122        3.0947323138        0.3511408777  CLST      83              1.0000000000
       412        83  DCM       H1              0.7280702364        2.3124539716        0.8843120885  CLST      83              1.0000000000
       413        83  DCM       H2              2.2067024951        3.3895399132        0.9332583581  CLST      83              1.0000000000
       414        83  DCM       CL1             0.2699359817        4.5302840763        0.1167324221  CLST      83              1.0000000000
       415        83  DCM       CL2             1.8323208675        2.4551034139       -1.2329180910  CLST      83              1.0000000000
       416        84  DCM       C              -0.1399064882        3.0635606075        0.8292006785  CLST      84              1.0000000000
       417        84  DCM       H1             -0.8884772599        2.2453196910        0.8893566687  CLST      84              1.0000000000
       418        84  DCM       H2             -0.6329946236        4.0421233934        0.6543193287  CLST      84              1.0000000000
       419        84  DCM       CL1             0.7717589718        3.1450002531        2.3622533260  CLST      84              1.0000000000
       420        84  DCM       CL2             0.9804050813        2.7394241952       -0.5233452617  CLST      84              1.0000000000
       421        85  DCM       C              -2.9033195580       -1.9259405935        2.6554966483  CLST      85              1.0000000000
       422        85  DCM       H1             -3.2945285620       -2.1555779496        1.6440549185  CLST      85              1.0000000000
       423        85  DCM       H2             -3.3404165918       -0.9833695646        3.0464721972  CLST      85              1.0000000000
       424        85  DCM       CL1            -3.3320306829       -3.2666312273        3.7551488061  CLST      85              1.0000000000
       425        85  DCM       CL2            -1.1262309733       -1.7594998458        2.5670361527  CLST      85              1.0000000000
       426        86  DCM       C              -2.4548213392       -1.5559911191       -2.4790119686  CLST      86              1.0000000000
       427        86  DCM       H1             -2.7336498805       -2.0483139893       -3.4327652850  CLST      86              1.0000000000
       428        86  DCM       H2             -2.0444411367       -2.2900985975       -1.7528027539  CLST      86              1.0000000000
       429        86  DCM       CL1            -3.9074058068       -0.7938100466       -1.7753876667  CLST      86              1.0000000000
       430        86  DCM       CL2            -1.2132686445       -0.3183196928       -2.8043562590  CLST      86              1.0000000000
       431        87  DCM       C               2.4838518925       -1.9513463446        2.1371961885  CLST      87              1.0000000000
       432        87  DCM       H1              2.2323660512       -1.8214312694        3.2104727967  CLST      87              1.0000000000
       433        87  DCM       H2              2.8668505180       -2.9747750682        1.9376990090  CLST      87              1.0000000000
       434        87  DCM       CL1             1.0140022147       -1.6771632584        1.1569523922  CLST      87              1.0000000000
       435        87  DCM       CL2             3.7409492097       -0.7633795023        1.6896580901  CLST      87              1.0000000000
       436        88  DCM       C              -2.2192120141        1.6591688317        3.3763816292  CLST      88              1.0000000000
       437        88  DCM       H1             -2.3776193399        1.7164747140        2.2783518655  CLST      88              1.0000000000
       438        88  DCM       H2             -3.1831886990        1.5474143517        3.9156883496  CLST      88              1.0000000000
       439        88  DCM       CL1            -1.1846191260        0.2481513524        3.7387391517  CLST      88              1.0000000000
       440        88  DCM       CL2            -1.4150297162        3.1593023927        3.9223550137  CLST      88              1.0000000000
       441        89  DCM       C               1.0520612758        3.8361859568       -2.5721185537  CLST      89              1.0000000000
       442        89  DCM       H1              0.4504690836        4.4356339055       -1.8569161727  CLST      89              1.0000000000
       443        89  DCM       H2              2.1344263633        4.0530629237       -2.4593668975  CLST      89              1.0000000000
       444        89  DCM       CL1             0.7749735388        2.0971625396       -2.2633060244  CLST      89              1.0000000000
       445        89  DCM       CL2             0.5518301755        4.2424743656       -4.2386613828  CLST      89              1.0000000000
       446        90  DCM       C               2.7137419864        2.8694838106       -0.3894798360  CLST      90              1.0000000000
       447        90  DCM       H1              1.7272932092        3.3098609262       -0.1372495152  CLST      90              1.0000000000
       448        90  DCM       H2              2.8706846655        1.9137243978        0.1482097538  CLST      90              1.0000000000
       449        90  DCM       CL1             2.7720921323        2.5613115505       -2.1480786127  CLST      90              1.0000000000
       450        90  DCM       CL2             4.0074471572        4.0128256391        0.0764070297  CLST      90              1.0000000000
       451        91  DCM       C              -2.9487183654        1.8334117596        0.6225482984  CLST      91              1.0000000000
       452        91  DCM       H1             -3.5322092498        0.8917918154        0.5425624984  CLST      91              1.0000000000
       453        91  DCM       H2             -2.4797531518        1.9267338529        1.6243315446  CLST      91              1.0000000000
       454        91  DCM       CL1            -1.6650023448        1.8330595457       -0.6219569442  CLST      91              1.0000000000
       455        91  DCM       CL2            -4.0417727283        3.2240872023        0.3660691875  CLST      91              1.0000000000
       456        92  DCM       C               0.7684089315        0.4645617237       -2.3200805907  CLST      92              1.0000000000
       457        92  DCM       H1              0.5282525067        1.4560932796       -1.8811155793  CLST      92              1.0000000000
       458        92  DCM       H2              0.3306166407        0.3619963817       -3.3354246255  CLST      92              1.0000000000
       459        92  DCM       CL1             2.5441771075        0.2910758051       -2.4319369550  CLST      92              1.0000000000
       460        92  DCM       CL2             0.1012846925       -0.8161064719       -1.2666296907  CLST      92              1.0000000000
