* PRE_MLPOT:MONOMER_REPACK
*  DATE:     6/28/26      2: 0:28      CREATED BY USER: boittier
*
       490  EXT
         1         1  DCM       C               0.3697718041       -3.5685284902       -0.0630112651  CLST      1               1.0000000000
         2         1  DCM       H1              0.4199334419       -2.6243974592        0.5167688913  CLST      1               1.0000000000
         3         1  DCM       H2              0.1176099679       -4.4260369124        0.5951866696  CLST      1               1.0000000000
         4         1  DCM       CL1            -0.8965641197       -3.4010110090       -1.3105952425  CLST      1               1.0000000000
         5         1  DCM       CL2             1.9547656312       -3.8714394820       -0.8340764972  CLST      1               1.0000000000
         6         2  DCM       C              -3.0742978813        1.1790514927       -2.9520913832  CLST      2               1.0000000000
         7         2  DCM       H1             -3.5621198278        0.8469836940       -3.8932537737  CLST      2               1.0000000000
         8         2  DCM       H2             -2.1272336270        0.6287942392       -2.7817578528  CLST      2               1.0000000000
         9         2  DCM       CL1            -2.7079814144        2.9236586725       -3.0614993403  CLST      2               1.0000000000
        10         2  DCM       CL2            -4.1691200627        0.8666436220       -1.5750258563  CLST      2               1.0000000000
        11         3  DCM       C               1.8861442983       -0.6792868964        0.4472184079  CLST      3               1.0000000000
        12         3  DCM       H1              1.0825981214       -0.4357378819        1.1733969963  CLST      3               1.0000000000
        13         3  DCM       H2              2.3718598009        0.2446139275        0.0686158693  CLST      3               1.0000000000
        14         3  DCM       CL1             3.1134115067       -1.6933685349        1.2563127747  CLST      3               1.0000000000
        15         3  DCM       CL2             1.1795663232       -1.5755088330       -0.9288730791  CLST      3               1.0000000000
        16         4  DCM       C               0.7328990675        0.8040739430       -2.3392657647  CLST      4               1.0000000000
        17         4  DCM       H1              0.3323835143       -0.1196214319       -2.8063890121  CLST      4               1.0000000000
        18         4  DCM       H2              1.8410426419        0.7899099127       -2.3343761817  CLST      4               1.0000000000
        19         4  DCM       CL1             0.1514885110        0.9127449478       -0.6528904898  CLST      4               1.0000000000
        20         4  DCM       CL2             0.1726367707        2.2239600911       -3.2697887125  CLST      4               1.0000000000
        21         5  DCM       C               0.3714955531       -2.2073552431       -2.3885839958  CLST      5               1.0000000000
        22         5  DCM       H1              0.9969962170       -1.5056224676       -1.7971364033  CLST      5               1.0000000000
        23         5  DCM       H2             -0.6963633753       -2.1410598353       -2.0898508888  CLST      5               1.0000000000
        24         5  DCM       CL1             0.5163827690       -1.7907145056       -4.1214950549  CLST      5               1.0000000000
        25         5  DCM       CL2             0.9515080758       -3.8761576700       -2.1104375870  CLST      5               1.0000000000
        26         6  DCM       C               2.7074201846        1.4488201012        1.6494361087  CLST      6               1.0000000000
        27         6  DCM       H1              2.4309486569        1.2431617204        2.7045082067  CLST      6               1.0000000000
        28         6  DCM       H2              3.7603148113        1.1587370793        1.4482417728  CLST      6               1.0000000000
        29         6  DCM       CL1             1.6295207187        0.5123484965        0.5753397527  CLST      6               1.0000000000
        30         6  DCM       CL2             2.5148642615        3.1959773543        1.3336365467  CLST      6               1.0000000000
        31         7  DCM       C              -1.2114591049       -0.0168010941        0.0508644484  CLST      7               1.0000000000
        32         7  DCM       H1             -0.4189870424       -0.1465450795        0.8183390177  CLST      7               1.0000000000
        33         7  DCM       H2             -0.7989134989       -0.1445901190       -0.9728234461  CLST      7               1.0000000000
        34         7  DCM       CL1            -2.4833990551       -1.2430724866        0.3187098457  CLST      7               1.0000000000
        35         7  DCM       CL2            -1.9096798417        1.6223960265        0.2038122397  CLST      7               1.0000000000
        36         8  DCM       C               0.3321800524        0.7218012441        1.8287371026  CLST      8               1.0000000000
        37         8  DCM       H1              0.1985231738       -0.3522505740        2.0751610254  CLST      8               1.0000000000
        38         8  DCM       H2              0.2235367086        1.3542424979        2.7356566713  CLST      8               1.0000000000
        39         8  DCM       CL1             1.9651863564        0.9695832809        1.1481391166  CLST      8               1.0000000000
        40         8  DCM       CL2            -0.9032393507        1.2026003766        0.6304114320  CLST      8               1.0000000000
        41         9  DCM       C              -1.6642670033        0.5540602188        2.0277380886  CLST      9               1.0000000000
        42         9  DCM       H1             -2.2399786178        0.9112406367        1.1480440174  CLST      9               1.0000000000
        43         9  DCM       H2             -1.7606528668        1.2594269240        2.8797696104  CLST      9               1.0000000000
        44         9  DCM       CL1            -2.2873726128       -1.0472806659        2.5221092885  CLST      9               1.0000000000
        45         9  DCM       CL2             0.0604592925        0.4178722201        1.5786713808  CLST      9               1.0000000000
        46        10  DCM       C               3.0581093036        1.8597219019        2.5938346176  CLST      10              1.0000000000
        47        10  DCM       H1              3.3584865042        1.7118513663        1.5353830587  CLST      10              1.0000000000
        48        10  DCM       H2              3.9239847748        1.7371978572        3.2754389645  CLST      10              1.0000000000
        49        10  DCM       CL1             2.4045164051        3.5125623685        2.7849726343  CLST      10              1.0000000000
        50        10  DCM       CL2             1.8069586275        0.6535045697        3.0212337751  CLST      10              1.0000000000
        51        11  DCM       C               2.5333709828       -1.8261567866        2.0141953329  CLST      11              1.0000000000
        52        11  DCM       H1              2.2762417202       -2.6161519575        2.7502048739  CLST      11              1.0000000000
        53        11  DCM       H2              3.3195420210       -2.1734868669        1.3114742267  CLST      11              1.0000000000
        54        11  DCM       CL1             1.0726058183       -1.3981967181        1.0786826886  CLST      11              1.0000000000
        55        11  DCM       CL2             3.1308366928       -0.3899749808        2.8927784430  CLST      11              1.0000000000
        56        12  DCM       C               0.9169899842       -2.2511209981       -2.2627735503  CLST      12              1.0000000000
        57        12  DCM       H1              0.2585212729       -2.5167960731       -3.1141295429  CLST      12              1.0000000000
        58        12  DCM       H2              0.5035786505       -2.6396993839       -1.3098775353  CLST      12              1.0000000000
        59        12  DCM       CL1             1.0413689813       -0.4752318139       -2.1565134968  CLST      12              1.0000000000
        60        12  DCM       CL2             2.5358082234       -2.9558966508       -2.5308803751  CLST      12              1.0000000000
        61        13  DCM       C               2.2434757931       -2.6378088259        1.2145525578  CLST      13              1.0000000000
        62        13  DCM       H1              1.7502821820       -2.3605563988        0.2598539977  CLST      13              1.0000000000
        63        13  DCM       H2              1.5341307081       -2.5739514992        2.0647508970  CLST      13              1.0000000000
        64        13  DCM       CL1             2.8397695710       -4.3146319790        1.0901469421  CLST      13              1.0000000000
        65        13  DCM       CL2             3.6132274095       -1.5260499222        1.5029750579  CLST      13              1.0000000000
        66        14  DCM       C              -3.4275537490        1.7268365515        1.2555905114  CLST      14              1.0000000000
        67        14  DCM       H1             -2.8669596503        2.5458911580        0.7588799527  CLST      14              1.0000000000
        68        14  DCM       H2             -2.8231987528        0.7966029392        1.2968834184  CLST      14              1.0000000000
        69        14  DCM       CL1            -3.8306204172        2.2340234264        2.9206074362  CLST      14              1.0000000000
        70        14  DCM       CL2            -4.9269241833        1.4032700425        0.3373685817  CLST      14              1.0000000000
        71        15  DCM       C              -0.2052501887        1.3012498135       -1.6524927470  CLST      15              1.0000000000
        72        15  DCM       H1              0.5532758245        2.0953908501       -1.8140242573  CLST      15              1.0000000000
        73        15  DCM       H2              0.2057008152        0.4783600912       -1.0299278616  CLST      15              1.0000000000
        74        15  DCM       CL1            -1.6229827753        2.0114014860       -0.8255670914  CLST      15              1.0000000000
        75        15  DCM       CL2            -0.6984071490        0.6425798692       -3.2378512332  CLST      15              1.0000000000
        76        16  DCM       C               1.6692840819        2.5326185538       -2.8499836598  CLST      16              1.0000000000
        77        16  DCM       H1              1.3274458218        3.5652696589       -3.0728612991  CLST      16              1.0000000000
        78        16  DCM       H2              1.7871771016        1.9440942168       -3.7834932723  CLST      16              1.0000000000
        79        16  DCM       CL1             3.2439164497        2.6054349743       -2.0072920840  CLST      16              1.0000000000
        80        16  DCM       CL2             0.4632978380        1.7276844083       -1.8049798101  CLST      16              1.0000000000
        81        17  DCM       C              -1.3267874172       -0.4276011014       -2.1210637942  CLST      17              1.0000000000
        82        17  DCM       H1             -1.9352202783       -1.1401343107       -2.7165382438  CLST      17              1.0000000000
        83        17  DCM       H2             -1.6869439025       -0.3737192058       -1.0710988770  CLST      17              1.0000000000
        84        17  DCM       CL1             0.3731685784       -0.9769101046       -2.1275293094  CLST      17              1.0000000000
        85        17  DCM       CL2            -1.4400155790        1.1943307284       -2.8626959048  CLST      17              1.0000000000
        86        18  DCM       C              -1.8616873110       -3.1188089063        1.1095784202  CLST      18              1.0000000000
        87        18  DCM       H1             -2.7146848114       -2.4692442648        0.8202809886  CLST      18              1.0000000000
        88        18  DCM       H2             -2.0735786800       -3.6524013921        2.0602491607  CLST      18              1.0000000000
        89        18  DCM       CL1            -0.4005988952       -2.1115390293        1.3192718528  CLST      18              1.0000000000
        90        18  DCM       CL2            -1.5778042471       -4.3171113953       -0.1836548928  CLST      18              1.0000000000
        91        19  DCM       C              -0.1284543345       -2.3423884916        2.7822095706  CLST      19              1.0000000000
        92        19  DCM       H1             -0.1220604198       -1.8173338256        3.7592378591  CLST      19              1.0000000000
        93        19  DCM       H2              0.9004281152       -2.6362816626        2.4848064735  CLST      19              1.0000000000
        94        19  DCM       CL1            -1.1411125314       -3.8080696703        2.9175616636  CLST      19              1.0000000000
        95        19  DCM       CL2            -0.8091723670       -1.2538544221        1.5401936138  CLST      19              1.0000000000
        96        20  DCM       C               1.1327727591        2.2595012780        3.0500764780  CLST      20              1.0000000000
        97        20  DCM       H1              0.3042201272        2.8300679537        3.5195060639  CLST      20              1.0000000000
        98        20  DCM       H2              1.9079769694        2.9423615418        2.6456516375  CLST      20              1.0000000000
        99        20  DCM       CL1             0.4722141412        1.2679410390        1.7240351193  CLST      20              1.0000000000
       100        20  DCM       CL2             1.8747610589        1.1930293635        4.2716505785  CLST      20              1.0000000000
       101        21  DCM       C              -0.5502553538       -2.7804253349        0.7364368753  CLST      21              1.0000000000
       102        21  DCM       H1             -1.4280116000       -3.4445311956        0.8818757053  CLST      21              1.0000000000
       103        21  DCM       H2              0.3866065781       -3.3711158169        0.6529643435  CLST      21              1.0000000000
       104        21  DCM       CL1            -0.4254571596       -1.6798771445        2.1379017164  CLST      21              1.0000000000
       105        21  DCM       CL2            -0.7799709707       -1.8309647983       -0.7593044003  CLST      21              1.0000000000
       106        22  DCM       C               0.7296647378       -1.2756316226        2.6353830565  CLST      22              1.0000000000
       107        22  DCM       H1              0.1609038826       -1.7813964877        1.8273433899  CLST      22              1.0000000000
       108        22  DCM       H2              0.6308920451       -0.1719613464        2.5622399829  CLST      22              1.0000000000
       109        22  DCM       CL1             0.0892937201       -1.8178802420        4.2138579168  CLST      22              1.0000000000
       110        22  DCM       CL2             2.4559304805       -1.7201059794        2.4945265046  CLST      22              1.0000000000
       111        23  DCM       C              -2.1023590211       -2.8919384510        2.9272162330  CLST      23              1.0000000000
       112        23  DCM       H1             -2.4017383187       -2.2023426826        2.1119548615  CLST      23              1.0000000000
       113        23  DCM       H2             -1.6602176088       -2.3322662690        3.7759954781  CLST      23              1.0000000000
       114        23  DCM       CL1            -0.8877543906       -4.0419740567        2.3006517434  CLST      23              1.0000000000
       115        23  DCM       CL2            -3.5430183318       -3.7761218449        3.5061812650  CLST      23              1.0000000000
       116        24  DCM       C              -3.2625915901       -0.2869346886       -1.4007276753  CLST      24              1.0000000000
       117        24  DCM       H1             -2.5928993422        0.5962482506       -1.4554482685  CLST      24              1.0000000000
       118        24  DCM       H2             -2.7569892514       -1.1953443274       -1.7914665102  CLST      24              1.0000000000
       119        24  DCM       CL1            -3.7221443651       -0.5680468891        0.3049248464  CLST      24              1.0000000000
       120        24  DCM       CL2            -4.7258145171        0.0259491401       -2.3767989451  CLST      24              1.0000000000
       121        25  DCM       C               2.2346672967        2.6196906025       -1.3283291743  CLST      25              1.0000000000
       122        25  DCM       H1              2.2968875117        2.8401728523       -2.4150137394  CLST      25              1.0000000000
       123        25  DCM       H2              2.1426759186        1.5275008709       -1.1486622792  CLST      25              1.0000000000
       124        25  DCM       CL1             3.7144503143        3.2208380050       -0.5259840607  CLST      25              1.0000000000
       125        25  DCM       CL2             0.8025718427        3.4427334330       -0.6472129128  CLST      25              1.0000000000
       126        26  DCM       C              -3.0211636198       -2.2747140421        2.2843653263  CLST      26              1.0000000000
       127        26  DCM       H1             -2.8413004934       -3.2988372998        1.8934494445  CLST      26              1.0000000000
       128        26  DCM       H2             -3.5240331364       -2.3023183976        3.2734392431  CLST      26              1.0000000000
       129        26  DCM       CL1            -1.4523078283       -1.4400276687        2.4585615279  CLST      26              1.0000000000
       130        26  DCM       CL2            -4.0677333613       -1.3937058497        1.1359215510  CLST      26              1.0000000000
       131        27  DCM       C               1.9758499182        1.1616890786       -1.2702929163  CLST      27              1.0000000000
       132        27  DCM       H1              1.1956271254        1.1633384378       -0.4799715393  CLST      27              1.0000000000
       133        27  DCM       H2              1.5213407896        1.0579433009       -2.2777693612  CLST      27              1.0000000000
       134        27  DCM       CL1             2.8848883572        2.6990119247       -1.1971443885  CLST      27              1.0000000000
       135        27  DCM       CL2             3.0847392467       -0.2116241215       -0.9895335562  CLST      27              1.0000000000
       136        28  DCM       C               2.1556770986       -1.9823778416        0.9273123070  CLST      28              1.0000000000
       137        28  DCM       H1              1.7921789565       -0.9961037437        1.2855377650  CLST      28              1.0000000000
       138        28  DCM       H2              3.1917531949       -1.9053337199        0.5355203209  CLST      28              1.0000000000
       139        28  DCM       CL1             2.1395519587       -3.1407542317        2.2877847079  CLST      28              1.0000000000
       140        28  DCM       CL2             1.0777133416       -2.5619091027       -0.3761875706  CLST      28              1.0000000000
       141        29  DCM       C              -1.2645635978       -0.8130216839        0.8896477402  CLST      29              1.0000000000
       142        29  DCM       H1             -0.5207640084       -1.5873790321        0.6099521249  CLST      29              1.0000000000
       143        29  DCM       H2             -2.2612642394       -1.2660953155        1.0748451711  CLST      29              1.0000000000
       144        29  DCM       CL1            -0.7105771968        0.0135607495        2.3755634510  CLST      29              1.0000000000
       145        29  DCM       CL2            -1.4077213401        0.3637569802       -0.4474331301  CLST      29              1.0000000000
       146        30  DCM       C              -0.8291691628        2.1851370008        3.0353075645  CLST      30              1.0000000000
       147        30  DCM       H1             -1.3583455808        2.5150502458        3.9536495897  CLST      30              1.0000000000
       148        30  DCM       H2              0.2556961634        2.4114683497        3.0972436566  CLST      30              1.0000000000
       149        30  DCM       CL1            -1.0459772241        0.4220473062        2.8398748371  CLST      30              1.0000000000
       150        30  DCM       CL2            -1.5204338912        3.0449584846        1.6297895533  CLST      30              1.0000000000
       151        31  DCM       C               2.8584153504       -0.8567725957        1.8402155460  CLST      31              1.0000000000
       152        31  DCM       H1              3.3785437159       -0.7222776922        2.8113317605  CLST      31              1.0000000000
       153        31  DCM       H2              3.4235343956       -0.3705783401        1.0170514857  CLST      31              1.0000000000
       154        31  DCM       CL1             1.2285340383       -0.1277252243        1.9444683507  CLST      31              1.0000000000
       155        31  DCM       CL2             2.7170818442       -2.6045405349        1.4932689318  CLST      31              1.0000000000
       156        32  DCM       C               1.6460036088        2.3233067377        2.0622854156  CLST      32              1.0000000000
       157        32  DCM       H1              2.2334710905        3.1756848471        1.6627088630  CLST      32              1.0000000000
       158        32  DCM       H2              2.1149592470        1.3559055714        1.7840918327  CLST      32              1.0000000000
       159        32  DCM       CL1            -0.0067778977        2.3840067581        1.3860373276  CLST      32              1.0000000000
       160        32  DCM       CL2             1.5751281638        2.4453229516        3.8440998871  CLST      32              1.0000000000
       161        33  DCM       C               0.1245683555       -2.5468580266        1.1609244928  CLST      33              1.0000000000
       162        33  DCM       H1             -0.2606672080       -1.8371210882        0.3986545776  CLST      33              1.0000000000
       163        33  DCM       H2             -0.2979794089       -3.5622229640        1.0075844640  CLST      33              1.0000000000
       164        33  DCM       CL1             1.9056052149       -2.6307032343        1.0288259527  CLST      33              1.0000000000
       165        33  DCM       CL2            -0.3372063312       -1.9659154183        2.7877751716  CLST      33              1.0000000000
       166        34  DCM       C               1.2812685782        1.7917463596       -0.5854428552  CLST      34              1.0000000000
       167        34  DCM       H1              0.2149750655        2.0948540168       -0.5530576766  CLST      34              1.0000000000
       168        34  DCM       H2              1.5081977661        1.2244843384       -1.5133395210  CLST      34              1.0000000000
       169        34  DCM       CL1             2.2986059529        3.2589130043       -0.5397523512  CLST      34              1.0000000000
       170        34  DCM       CL2             1.6372212806        0.7632970203        0.8324874354  CLST      34              1.0000000000
       171        35  DCM       C              -0.2408538005        2.7252489062       -0.3031875165  CLST      35              1.0000000000
       172        35  DCM       H1             -0.9452051049        3.4246710105       -0.8014278215  CLST      35              1.0000000000
       173        35  DCM       H2             -0.1040523269        1.8009992165       -0.9033041333  CLST      35              1.0000000000
       174        35  DCM       CL1             1.3405354960        3.5365186867       -0.1103166354  CLST      35              1.0000000000
       175        35  DCM       CL2            -0.8954211378        2.2850587109        1.3012946195  CLST      35              1.0000000000
       176        36  DCM       C              -2.2370367963       -2.5124186292       -1.4489394048  CLST      36              1.0000000000
       177        36  DCM       H1             -3.0363748353       -3.0124470022       -0.8631943455  CLST      36              1.0000000000
       178        36  DCM       H2             -2.1961076096       -1.4266782542       -1.2195597740  CLST      36              1.0000000000
       179        36  DCM       CL1            -0.6619255535       -3.2515084037       -1.0373328067  CLST      36              1.0000000000
       180        36  DCM       CL2            -2.5724840663       -2.7293779597       -3.1907899067  CLST      36              1.0000000000
       181        37  DCM       C               1.0683309589       -1.5947045825       -3.0694894851  CLST      37              1.0000000000
       182        37  DCM       H1              1.4109375072       -2.5820500401       -3.4422739361  CLST      37              1.0000000000
       183        37  DCM       H2             -0.0303187975       -1.4839228794       -3.1831313130  CLST      37              1.0000000000
       184        37  DCM       CL1             1.4954523967       -1.4450301189       -1.3397946460  CLST      37              1.0000000000
       185        37  DCM       CL2             1.8806639898       -0.3111111786       -4.0090872329  CLST      37              1.0000000000
       186        38  DCM       C               0.6599490991        1.1740667924        2.0857847669  CLST      38              1.0000000000
       187        38  DCM       H1              1.2568845311        1.9143519134        2.6593395930  CLST      38              1.0000000000
       188        38  DCM       H2              1.3173766814        0.4255885404        1.5969817894  CLST      38              1.0000000000
       189        38  DCM       CL1            -0.4615144582        0.3318164040        3.1882047281  CLST      38              1.0000000000
       190        38  DCM       CL2            -0.2721329154        2.0298395684        0.8330105584  CLST      38              1.0000000000
       191        39  DCM       C               2.7587636965       -2.8685712169       -1.8121851230  CLST      39              1.0000000000
       192        39  DCM       H1              3.5788837484       -2.8134430422       -2.5586460390  CLST      39              1.0000000000
       193        39  DCM       H2              3.1167331753       -3.3043389060       -0.8555002330  CLST      39              1.0000000000
       194        39  DCM       CL1             2.1413309400       -1.2196410735       -1.5049212697  CLST      39              1.0000000000
       195        39  DCM       CL2             1.4484275805       -3.8944789481       -2.4618923319  CLST      39              1.0000000000
       196        40  DCM       C               2.5554739957       -0.7297650611        3.1902898052  CLST      40              1.0000000000
       197        40  DCM       H1              2.2786789067        0.1348750172        3.8288087576  CLST      40              1.0000000000
       198        40  DCM       H2              3.3854663675       -1.3137442702        3.6435268707  CLST      40              1.0000000000
       199        40  DCM       CL1             1.1284268717       -1.7900519132        3.0077719344  CLST      40              1.0000000000
       200        40  DCM       CL2             3.0748072995       -0.1266964751        1.5893138787  CLST      40              1.0000000000
       201        41  DCM       C              -2.3151979087        1.4721781868       -0.6399777444  CLST      41              1.0000000000
       202        41  DCM       H1             -2.3576783634        0.3646759913       -0.6926945257  CLST      41              1.0000000000
       203        41  DCM       H2             -3.2111725496        1.8858675810       -0.1299835902  CLST      41              1.0000000000
       204        41  DCM       CL1            -2.2325724718        2.1286094012       -2.2981078555  CLST      41              1.0000000000
       205        41  DCM       CL2            -0.8602958120        1.9519097203        0.2773646312  CLST      41              1.0000000000
       206        42  DCM       C              -0.4837902533       -0.1184408357       -1.4679650303  CLST      42              1.0000000000
       207        42  DCM       H1             -0.3081554673        0.1329195952       -2.5346677122  CLST      42              1.0000000000
       208        42  DCM       H2             -0.2899014245       -1.1949558832       -1.2761263748  CLST      42              1.0000000000
       209        42  DCM       CL1             0.6109644695        0.8635436214       -0.4529810761  CLST      42              1.0000000000
       210        42  DCM       CL2            -2.1823135716        0.2488150986       -1.0570316419  CLST      42              1.0000000000
       211        43  DCM       C               1.8117748626       -1.2451284312       -0.7795101882  CLST      43              1.0000000000
       212        43  DCM       H1              0.9803217466       -0.7385112861       -0.2454190681  CLST      43              1.0000000000
       213        43  DCM       H2              2.6816278062       -1.4004316034       -0.1068326988  CLST      43              1.0000000000
       214        43  DCM       CL1             1.2415823185       -2.8303387537       -1.3764514396  CLST      43              1.0000000000
       215        43  DCM       CL2             2.3200873723       -0.2298240206       -2.1598639785  CLST      43              1.0000000000
       216        44  DCM       C               0.5961674919        0.5766470511        0.3579837807  CLST      44              1.0000000000
       217        44  DCM       H1              1.3103870258        0.4444079026        1.1977469521  CLST      44              1.0000000000
       218        44  DCM       H2              0.1281168866       -0.3903102777        0.0750434397  CLST      44              1.0000000000
       219        44  DCM       CL1            -0.6855863970        1.7158216095        0.8568578177  CLST      44              1.0000000000
       220        44  DCM       CL2             1.4720484712        1.2380936480       -1.0526740551  CLST      44              1.0000000000
       221        45  DCM       C               0.1365947555        2.7960036117       -0.1034620184  CLST      45              1.0000000000
       222        45  DCM       H1              0.3711088095        2.4616263308       -1.1350174052  CLST      45              1.0000000000
       223        45  DCM       H2              0.9788400955        3.3763640048        0.3285769839  CLST      45              1.0000000000
       224        45  DCM       CL1            -0.1624685450        1.3549753937        0.9093852809  CLST      45              1.0000000000
       225        45  DCM       CL2            -1.3225581338        3.8257565012       -0.1498748146  CLST      45              1.0000000000
       226        46  DCM       C              -0.7731739201        2.0907785775        1.0475241811  CLST      46              1.0000000000
       227        46  DCM       H1             -0.4412044518        1.5846876426        1.9790192588  CLST      46              1.0000000000
       228        46  DCM       H2             -0.2896010683        1.6381958748        0.1567057901  CLST      46              1.0000000000
       229        46  DCM       CL1            -2.5469376019        1.9391780207        0.8954031203  CLST      46              1.0000000000
       230        46  DCM       CL2            -0.3297497723        3.8182268454        1.1356900621  CLST      46              1.0000000000
       231        47  DCM       C              -2.0245609033       -3.1462152084       -2.6168574377  CLST      47              1.0000000000
       232        47  DCM       H1             -2.8819473259       -2.6124442526       -3.0761386363  CLST      47              1.0000000000
       233        47  DCM       H2             -1.3420518122       -3.5483606211       -3.3932934582  CLST      47              1.0000000000
       234        47  DCM       CL1            -1.1172458538       -2.0098225097       -1.5796785195  CLST      47              1.0000000000
       235        47  DCM       CL2            -2.6542481244       -4.4935938391       -1.6305099896  CLST      47              1.0000000000
       236        48  DCM       C               3.1417423990       -2.3658046015       -1.4047173056  CLST      48              1.0000000000
       237        48  DCM       H1              2.1742104524       -2.0799168280       -1.8694202251  CLST      48              1.0000000000
       238        48  DCM       H2              3.6720781602       -3.1242443132       -2.0186373153  CLST      48              1.0000000000
       239        48  DCM       CL1             2.8302344381       -3.0473572396        0.2187158984  CLST      48              1.0000000000
       240        48  DCM       CL2             4.1713252587       -0.9112115880       -1.2662900201  CLST      48              1.0000000000
       241        49  DCM       C              -2.3658605152       -0.5916874440        0.7881792674  CLST      49              1.0000000000
       242        49  DCM       H1             -1.7387547732       -1.0239607871       -0.0194161729  CLST      49              1.0000000000
       243        49  DCM       H2             -3.4457500943       -0.6844474140        0.5485702614  CLST      49              1.0000000000
       244        49  DCM       CL1            -1.9571812318        1.1367575881        0.9720329453  CLST      49              1.0000000000
       245        49  DCM       CL2            -2.0307266450       -1.4597497985        2.3135382074  CLST      49              1.0000000000
       246        50  DCM       C              -2.3153367402        2.1918822677        2.1767438613  CLST      50              1.0000000000
       247        50  DCM       H1             -1.9173545172        3.2262325215        2.2399762632  CLST      50              1.0000000000
       248        50  DCM       H2             -2.7728749649        2.0006962503        1.1849310091  CLST      50              1.0000000000
       249        50  DCM       CL1            -0.9846713970        1.0257314645        2.4325804641  CLST      50              1.0000000000
       250        50  DCM       CL2            -3.5625092594        1.9721567993        3.4312608834  CLST      50              1.0000000000
       251        51  DCM       C              -1.3683209124       -2.1786375425        2.3521070230  CLST      51              1.0000000000
       252        51  DCM       H1             -0.6159468043       -1.3785932916        2.5138002470  CLST      51              1.0000000000
       253        51  DCM       H2             -0.9596806267       -3.1735754899        2.6311311917  CLST      51              1.0000000000
       254        51  DCM       CL1            -2.8035805469       -1.8303356612        3.3552693593  CLST      51              1.0000000000
       255        51  DCM       CL2            -1.8349405595       -2.2043237589        0.6277366585  CLST      51              1.0000000000
       256        52  DCM       C               2.6638054789       -0.7750246081        0.7460781955  CLST      52              1.0000000000
       257        52  DCM       H1              3.3539317359       -1.4515606019        1.2892602523  CLST      52              1.0000000000
       258        52  DCM       H2              2.6112956054       -1.0455841464       -0.3284432285  CLST      52              1.0000000000
       259        52  DCM       CL1             1.0362862639       -0.9130841732        1.4605514284  CLST      52              1.0000000000
       260        52  DCM       CL2             3.2410710282        0.9062683857        0.9036813639  CLST      52              1.0000000000
       261        53  DCM       C              -1.7388678921        0.9681890916       -1.3566556343  CLST      53              1.0000000000
       262        53  DCM       H1             -2.2664573653        0.5171455142       -2.2236158052  CLST      53              1.0000000000
       263        53  DCM       H2             -0.8994637388        0.3248989732       -1.0213317069  CLST      53              1.0000000000
       264        53  DCM       CL1            -1.0845769673        2.5596992604       -1.8337400467  CLST      53              1.0000000000
       265        53  DCM       CL2            -2.8943113881        1.1652160434       -0.0081965591  CLST      53              1.0000000000
       266        54  DCM       C               1.9227159364       -2.3508595008        2.1234420705  CLST      54              1.0000000000
       267        54  DCM       H1              1.5813449664       -1.5660787546        1.4151638401  CLST      54              1.0000000000
       268        54  DCM       H2              2.9962995275       -2.5828944519        1.9676454028  CLST      54              1.0000000000
       269        54  DCM       CL1             1.6933692857       -1.7714110631        3.7982681785  CLST      54              1.0000000000
       270        54  DCM       CL2             0.9653085495       -3.8376907692        1.8609686997  CLST      54              1.0000000000
       271        55  DCM       C              -0.0128077212        2.8504220516       -2.2072452732  CLST      55              1.0000000000
       272        55  DCM       H1             -0.9556051175        3.2767137832       -1.8055480178  CLST      55              1.0000000000
       273        55  DCM       H2              0.7712837891        2.8065949257       -1.4223632505  CLST      55              1.0000000000
       274        55  DCM       CL1            -0.3266845599        1.1933989761       -2.8021023284  CLST      55              1.0000000000
       275        55  DCM       CL2             0.5645728856        3.8835876355       -3.5456381960  CLST      55              1.0000000000
       276        56  DCM       C              -1.9533393484        3.4007900070       -1.0243628098  CLST      56              1.0000000000
       277        56  DCM       H1             -2.8785644079        3.9785481101       -1.2409628363  CLST      56              1.0000000000
       278        56  DCM       H2             -2.1187853877        2.3136137121       -1.1666438148  CLST      56              1.0000000000
       279        56  DCM       CL1            -0.6575514159        3.9196919878       -2.1384882313  CLST      56              1.0000000000
       280        56  DCM       CL2            -1.4567222642        3.6927430638        0.6681960131  CLST      56              1.0000000000
       281        57  DCM       C               0.1021014782        0.9498207644       -0.2952533646  CLST      57              1.0000000000
       282        57  DCM       H1              0.9164959941        1.6566094494       -0.5566769199  CLST      57              1.0000000000
       283        57  DCM       H2             -0.0158135514        0.8713848346        0.8062257125  CLST      57              1.0000000000
       284        57  DCM       CL1            -1.4299063789        1.5314644956       -1.0070721693  CLST      57              1.0000000000
       285        57  DCM       CL2             0.5042788579       -0.6599526643       -0.9580537238  CLST      57              1.0000000000
       286        58  DCM       C               1.0899624693        4.1129721667        1.2356497036  CLST      58              1.0000000000
       287        58  DCM       H1              0.6043940591        4.2226986799        0.2429442529  CLST      58              1.0000000000
       288        58  DCM       H2              2.1188037638        3.7114933082        1.1368892156  CLST      58              1.0000000000
       289        58  DCM       CL1             1.1647609893        5.7066117258        2.0374581076  CLST      58              1.0000000000
       290        58  DCM       CL2             0.1308407497        2.9859225544        2.2295308665  CLST      58              1.0000000000
       291        59  DCM       C               2.1583680682        0.4114124435       -2.0634340750  CLST      59              1.0000000000
       292        59  DCM       H1              3.1841268449        0.2976669045       -2.4733776367  CLST      59              1.0000000000
       293        59  DCM       H2              2.1830235620        0.8317174056       -1.0352475738  CLST      59              1.0000000000
       294        59  DCM       CL1             1.2261872493        1.5132262275       -3.1182694737  CLST      59              1.0000000000
       295        59  DCM       CL2             1.3701134077       -1.1910071318       -2.0211499267  CLST      59              1.0000000000
       296        60  DCM       C               0.3747794531        2.1194085900        0.8016223318  CLST      60              1.0000000000
       297        60  DCM       H1              0.5810949947        3.1270434675        1.2204715718  CLST      60              1.0000000000
       298        60  DCM       H2              1.2188028973        1.7683087519        0.1711713748  CLST      60              1.0000000000
       299        60  DCM       CL1             0.1367737508        0.9680837214        2.1483279649  CLST      60              1.0000000000
       300        60  DCM       CL2            -1.1051223643        2.1953237779       -0.1990061963  CLST      60              1.0000000000
       301        61  DCM       C               2.0288717980        2.3695910404        1.7905913910  CLST      61              1.0000000000
       302        61  DCM       H1              2.6490722478        2.4382342951        2.7091726006  CLST      61              1.0000000000
       303        61  DCM       H2              1.2972486080        1.5381974134        1.8639706169  CLST      61              1.0000000000
       304        61  DCM       CL1             1.1428283086        3.9062055323        1.5721665837  CLST      61              1.0000000000
       305        61  DCM       CL2             3.0978033410        2.0767362761        0.3882414007  CLST      61              1.0000000000
       306        62  DCM       C               2.5659448615        1.1647908676        0.6409896680  CLST      62              1.0000000000
       307        62  DCM       H1              2.3145487801        1.9676476049       -0.0831427742  CLST      62              1.0000000000
       308        62  DCM       H2              1.8795647798        1.1871512699        1.5127449102  CLST      62              1.0000000000
       309        62  DCM       CL1             4.2396569032        1.4043172686        1.2180021512  CLST      62              1.0000000000
       310        62  DCM       CL2             2.4221116407       -0.4171908153       -0.1787440841  CLST      62              1.0000000000
       311        63  DCM       C               1.9700073339        2.7593905175        0.4412662357  CLST      63              1.0000000000
       312        63  DCM       H1              1.3337789861        2.1923381329       -0.2710580299  CLST      63              1.0000000000
       313        63  DCM       H2              2.0861107457        2.2116384070        1.4005207620  CLST      63              1.0000000000
       314        63  DCM       CL1             3.5820835051        3.0101170448       -0.2894944159  CLST      63              1.0000000000
       315        63  DCM       CL2             1.2070979330        4.3401260846        0.7627574634  CLST      63              1.0000000000
       316        64  DCM       C               2.3817029860       -0.0417734683       -0.6267962690  CLST      64              1.0000000000
       317        64  DCM       H1              3.1472531467        0.1339308306       -1.4119653310  CLST      64              1.0000000000
       318        64  DCM       H2              2.7614615470        0.2482768536        0.3759874005  CLST      64              1.0000000000
       319        64  DCM       CL1             0.9314634391        0.9304784869       -1.0044942257  CLST      64              1.0000000000
       320        64  DCM       CL2             1.9543686250       -1.7767310953       -0.6106465452  CLST      64              1.0000000000
       321        65  DCM       C               2.2102750753       -1.6992239967       -0.5303197582  CLST      65              1.0000000000
       322        65  DCM       H1              1.6701641044       -1.0805076279        0.2170667392  CLST      65              1.0000000000
       323        65  DCM       H2              3.3018937310       -1.7089908165       -0.3244394225  CLST      65              1.0000000000
       324        65  DCM       CL1             1.5870156763       -3.3722947931       -0.4545985826  CLST      65              1.0000000000
       325        65  DCM       CL2             1.9313848661       -1.0243848363       -2.1623018611  CLST      65              1.0000000000
       326        66  DCM       C              -0.6357284197       -0.7903413766       -1.6533241761  CLST      66              1.0000000000
       327        66  DCM       H1             -1.1959815170       -0.1255691519       -0.9615898662  CLST      66              1.0000000000
       328        66  DCM       H2             -1.2712094368       -1.1162531767       -2.5024923693  CLST      66              1.0000000000
       329        66  DCM       CL1             0.7760554438        0.0927497400       -2.2970682500  CLST      66              1.0000000000
       330        66  DCM       CL2            -0.0838469950       -2.2331148590       -0.7569795142  CLST      66              1.0000000000
       331        67  DCM       C              -0.5238929163       -2.6832269387       -0.8516304047  CLST      67              1.0000000000
       332        67  DCM       H1             -1.5687557110       -2.3433206303       -0.6889484789  CLST      67              1.0000000000
       333        67  DCM       H2              0.0250092789       -2.7709220946        0.1099007780  CLST      67              1.0000000000
       334        67  DCM       CL1            -0.5527344888       -4.2827056850       -1.6524785726  CLST      67              1.0000000000
       335        67  DCM       CL2             0.3161388181       -1.4932407555       -1.8883754040  CLST      67              1.0000000000
       336        68  DCM       C              -0.4472225917       -0.5620465178        3.2150019853  CLST      68              1.0000000000
       337        68  DCM       H1              0.5362753292       -0.1543846051        3.5305767341  CLST      68              1.0000000000
       338        68  DCM       H2             -0.7212802425       -1.4536521373        3.8162721744  CLST      68              1.0000000000
       339        68  DCM       CL1            -1.6993421113        0.6930282335        3.4404151121  CLST      68              1.0000000000
       340        68  DCM       CL2            -0.3574056678       -1.0321332268        1.4940003894  CLST      68              1.0000000000
       341        69  DCM       C               0.7924718987        1.2265423272       -0.8821104987  CLST      69              1.0000000000
       342        69  DCM       H1              1.0723888416        0.4589953441       -1.6342240480  CLST      69              1.0000000000
       343        69  DCM       H2              0.8358387496        2.2471159266       -1.3172831512  CLST      69              1.0000000000
       344        69  DCM       CL1             1.9263745764        1.1310104117        0.4961276518  CLST      69              1.0000000000
       345        69  DCM       CL2            -0.8753725447        0.9117731721       -0.3208733259  CLST      69              1.0000000000
       346        70  DCM       C              -2.9873788260       -2.4459911651       -1.6152976333  CLST      70              1.0000000000
       347        70  DCM       H1             -3.2642324051       -2.8698474873       -2.6027204361  CLST      70              1.0000000000
       348        70  DCM       H2             -1.8854673593       -2.4261984669       -1.4891132984  CLST      70              1.0000000000
       349        70  DCM       CL1            -3.6138115323       -0.7797359390       -1.4986302662  CLST      70              1.0000000000
       350        70  DCM       CL2            -3.7013552171       -3.4478226797       -0.3202204340  CLST      70              1.0000000000
       351        71  DCM       C              -0.1275591661       -1.5840667889        1.6921288926  CLST      71              1.0000000000
       352        71  DCM       H1             -0.3633993316       -0.5046955230        1.7994601345  CLST      71              1.0000000000
       353        71  DCM       H2              0.5882671382       -1.9136772632        2.4743575702  CLST      71              1.0000000000
       354        71  DCM       CL1             0.6006319899       -1.8569316149        0.0838639330  CLST      71              1.0000000000
       355        71  DCM       CL2            -1.6382985492       -2.5277321986        1.8454272531  CLST      71              1.0000000000
       356        72  DCM       C              -1.5061109830       -2.1772941778       -2.8054960613  CLST      72              1.0000000000
       357        72  DCM       H1             -1.5471932199       -1.9466498180       -1.7199560321  CLST      72              1.0000000000
       358        72  DCM       H2             -0.8680728457       -3.0644417591       -3.0020984299  CLST      72              1.0000000000
       359        72  DCM       CL1            -0.8225608697       -0.7732022424       -3.6702749507  CLST      72              1.0000000000
       360        72  DCM       CL2            -3.1627299461       -2.5007057433       -3.3956685662  CLST      72              1.0000000000
       361        73  DCM       C              -0.9838867883        2.4032194738        1.7623243958  CLST      73              1.0000000000
       362        73  DCM       H1             -0.3258842856        3.0883037201        2.3366966768  CLST      73              1.0000000000
       363        73  DCM       H2             -1.2172087487        2.8260681901        0.7638057365  CLST      73              1.0000000000
       364        73  DCM       CL1            -0.1482661632        0.8361043140        1.5592802482  CLST      73              1.0000000000
       365        73  DCM       CL2            -2.5101375716        2.1637881902        2.6592528455  CLST      73              1.0000000000
       366        74  DCM       C              -1.1491975302        0.6829989056       -1.5348894729  CLST      74              1.0000000000
       367        74  DCM       H1             -0.0410140198        0.7283902074       -1.4916828847  CLST      74              1.0000000000
       368        74  DCM       H2             -1.5948285451        1.6848309177       -1.3581656423  CLST      74              1.0000000000
       369        74  DCM       CL1            -1.6467342390        0.0940144237       -3.1459640510  CLST      74              1.0000000000
       370        74  DCM       CL2            -1.7336655089       -0.4425139831       -0.2791886805  CLST      74              1.0000000000
       371        75  DCM       C              -3.0723496228        0.9203588992       -1.7979458188  CLST      75              1.0000000000
       372        75  DCM       H1             -2.1079423598        0.9952238625       -2.3436976985  CLST      75              1.0000000000
       373        75  DCM       H2             -3.3162559210        1.8829648929       -1.3021707538  CLST      75              1.0000000000
       374        75  DCM       CL1            -2.9438864113       -0.3607591509       -0.5583881284  CLST      75              1.0000000000
       375        75  DCM       CL2            -4.3721013257        0.5097501894       -2.9549434264  CLST      75              1.0000000000
       376        76  DCM       C               1.3025198679       -3.4654943332       -0.1801601046  CLST      76              1.0000000000
       377        76  DCM       H1              1.5812996431       -4.2077176604       -0.9579952769  CLST      76              1.0000000000
       378        76  DCM       H2              0.2354927979       -3.1707764341       -0.2696447161  CLST      76              1.0000000000
       379        76  DCM       CL1             1.5664898787       -4.1871998045        1.4304686204  CLST      76              1.0000000000
       380        76  DCM       CL2             2.3281172779       -2.0150277810       -0.3649188914  CLST      76              1.0000000000
       381        77  DCM       C              -0.1373014858        0.0113251876        2.1713130934  CLST      77              1.0000000000
       382        77  DCM       H1             -0.3488595835        1.0990128061        2.2039307470  CLST      77              1.0000000000
       383        77  DCM       H2              0.6552722745       -0.2613657816        2.8978881529  CLST      77              1.0000000000
       384        77  DCM       CL1            -1.6305787070       -0.8830488856        2.5746316578  CLST      77              1.0000000000
       385        77  DCM       CL2             0.4085012611       -0.4225069838        0.5265184384  CLST      77              1.0000000000
       386        78  DCM       C               2.8629735431       -1.3623821777       -1.9920151726  CLST      78              1.0000000000
       387        78  DCM       H1              2.1518524917       -1.2914183536       -2.8435395394  CLST      78              1.0000000000
       388        78  DCM       H2              3.8128386729       -1.8427383756       -2.3055826064  CLST      78              1.0000000000
       389        78  DCM       CL1             3.2183953033        0.2800797225       -1.3828113092  CLST      78              1.0000000000
       390        78  DCM       CL2             2.1202903031       -2.3425037058       -0.6939625907  CLST      78              1.0000000000
       391        79  DCM       C              -0.9298831550        1.8425523034       -1.0386055454  CLST      79              1.0000000000
       392        79  DCM       H1             -0.0396187800        1.4020400593       -0.5417568533  CLST      79              1.0000000000
       393        79  DCM       H2             -1.7860811226        1.1351652141       -1.0302240034  CLST      79              1.0000000000
       394        79  DCM       CL1            -1.4008172168        3.3296299533       -0.1706373490  CLST      79              1.0000000000
       395        79  DCM       CL2            -0.5154434954        2.2433024307       -2.7300623345  CLST      79              1.0000000000
       396        80  DCM       C              -2.4430112894       -0.4921357935       -0.8711863370  CLST      80              1.0000000000
       397        80  DCM       H1             -2.8022772368       -1.5365081700       -0.9797636708  CLST      80              1.0000000000
       398        80  DCM       H2             -3.0580954532        0.2013523783       -1.4807059210  CLST      80              1.0000000000
       399        80  DCM       CL1            -2.5522873165       -0.0154805072        0.8444905980  CLST      80              1.0000000000
       400        80  DCM       CL2            -0.7432794358       -0.3908559608       -1.4066467078  CLST      80              1.0000000000
       401        81  DCM       C              -1.0101097504        2.6761297579       -2.8956745929  CLST      81              1.0000000000
       402        81  DCM       H1             -1.7693654367        2.4325692189       -3.6668873315  CLST      81              1.0000000000
       403        81  DCM       H2             -0.3065228037        3.4533659493       -3.2607801710  CLST      81              1.0000000000
       404        81  DCM       CL1            -1.8437982104        3.2839864236       -1.4364482678  CLST      81              1.0000000000
       405        81  DCM       CL2            -0.0898885889        1.1967168878       -2.4990241531  CLST      81              1.0000000000
       406        82  DCM       C               0.8433489569       -2.4167631371        2.1214838189  CLST      82              1.0000000000
       407        82  DCM       H1              1.0459264625       -2.5589916041        3.2046280239  CLST      82              1.0000000000
       408        82  DCM       H2             -0.2230029667       -2.1686163702        1.9455153164  CLST      82              1.0000000000
       409        82  DCM       CL1             1.8544235145       -1.0751526094        1.5078095005  CLST      82              1.0000000000
       410        82  DCM       CL2             1.2416419156       -3.9239691452        1.2509505250  CLST      82              1.0000000000
       411        83  DCM       C              -0.8398392915        1.6876536648       -2.8941070086  CLST      83              1.0000000000
       412        83  DCM       H1             -0.0422029267        0.9957678821       -3.2295430476  CLST      83              1.0000000000
       413        83  DCM       H2             -0.6873732119        1.9820976046       -1.8350663099  CLST      83              1.0000000000
       414        83  DCM       CL1            -0.7979582667        3.1512799455       -3.9171187487  CLST      83              1.0000000000
       415        83  DCM       CL2            -2.4171771236        0.8600049266       -3.0471781480  CLST      83              1.0000000000
       416        84  DCM       C              -2.8157627540        0.8726548184        1.9072471586  CLST      84              1.0000000000
       417        84  DCM       H1             -1.9352654137        0.7068748240        2.5625541418  CLST      84              1.0000000000
       418        84  DCM       H2             -3.7480274981        0.5051661671        2.3855581978  CLST      84              1.0000000000
       419        84  DCM       CL1            -2.9824010723        2.6219501966        1.5871244777  CLST      84              1.0000000000
       420        84  DCM       CL2            -2.5613273135       -0.0033506440        0.3718755175  CLST      84              1.0000000000
       421        85  DCM       C               2.7071444512        2.7409717926        0.7251832525  CLST      85              1.0000000000
       422        85  DCM       H1              3.0606811651        2.8395603024        1.7728116048  CLST      85              1.0000000000
       423        85  DCM       H2              1.7419608349        3.2712095778        0.5804182836  CLST      85              1.0000000000
       424        85  DCM       CL1             3.9291318055        3.4499362983       -0.3710892193  CLST      85              1.0000000000
       425        85  DCM       CL2             2.4836124628        1.0075397198        0.3492114744  CLST      85              1.0000000000
       426        86  DCM       C              -0.8900362618       -2.3447844535       -1.4809066871  CLST      86              1.0000000000
       427        86  DCM       H1             -1.2123687620       -3.3983636570       -1.6051177743  CLST      86              1.0000000000
       428        86  DCM       H2             -1.7382122001       -1.6464590921       -1.6491414574  CLST      86              1.0000000000
       429        86  DCM       CL1            -0.2684020154       -2.1291452232        0.1816739320  CLST      86              1.0000000000
       430        86  DCM       CL2             0.4036027106       -1.9910471801       -2.6634240373  CLST      86              1.0000000000
       431        87  DCM       C              -2.7237436030       -0.7540445353        2.5808048576  CLST      87              1.0000000000
       432        87  DCM       H1             -2.4379027502       -1.5660132786        3.2779370725  CLST      87              1.0000000000
       433        87  DCM       H2             -2.7231415139       -1.1223104569        1.5335105681  CLST      87              1.0000000000
       434        87  DCM       CL1            -4.3584463996       -0.1800758151        3.0061720102  CLST      87              1.0000000000
       435        87  DCM       CL2            -1.5606254976        0.5907407665        2.7364764216  CLST      87              1.0000000000
       436        88  DCM       C              -1.7644128274        2.5862365557       -2.7203446642  CLST      88              1.0000000000
       437        88  DCM       H1             -2.5575845413        1.8198190071       -2.8497350774  CLST      88              1.0000000000
       438        88  DCM       H2             -1.5931657300        3.1434481782       -3.6642457095  CLST      88              1.0000000000
       439        88  DCM       CL1            -2.2679121847        3.7400100100       -1.4526207049  CLST      88              1.0000000000
       440        88  DCM       CL2            -0.2428051910        1.7814713671       -2.2384893885  CLST      88              1.0000000000
       441        89  DCM       C               0.2020188027        2.3619697183       -1.8801859898  CLST      89              1.0000000000
       442        89  DCM       H1             -0.6654136240        1.6917432400       -2.0586312717  CLST      89              1.0000000000
       443        89  DCM       H2              0.7962621833        2.0213659464       -1.0059989070  CLST      89              1.0000000000
       444        89  DCM       CL1             1.2474586326        2.3659836288       -3.3318100936  CLST      89              1.0000000000
       445        89  DCM       CL2            -0.4005681256        4.0145905009       -1.5635064559  CLST      89              1.0000000000
       446        90  DCM       C               1.7929198660       -2.1319541285       -0.1332954232  CLST      90              1.0000000000
       447        90  DCM       H1              1.6843767061       -2.8290589623       -0.9919300439  CLST      90              1.0000000000
       448        90  DCM       H2              2.3016092278       -2.6247406078        0.7217086726  CLST      90              1.0000000000
       449        90  DCM       CL1             2.7642921067       -0.7219473870       -0.6449311571  CLST      90              1.0000000000
       450        90  DCM       CL2             0.1707116747       -1.5922590207        0.3910982967  CLST      90              1.0000000000
       451        91  DCM       C              -2.3828900726       -0.2888444172        0.4849049978  CLST      91              1.0000000000
       452        91  DCM       H1             -1.7695791095        0.4631807444       -0.0540786606  CLST      91              1.0000000000
       453        91  DCM       H2             -2.5896378269        0.0399466136        1.5245698589  CLST      91              1.0000000000
       454        91  DCM       CL1            -3.9341469064       -0.4971826500       -0.3772253942  CLST      91              1.0000000000
       455        91  DCM       CL2            -1.4949666622       -1.8403741656        0.5314744046  CLST      91              1.0000000000
       456        92  DCM       C               2.9892111336       -1.6358958686       -2.8935973054  CLST      92              1.0000000000
       457        92  DCM       H1              4.0005610604       -1.2188446302       -3.0778870055  CLST      92              1.0000000000
       458        92  DCM       H2              3.0114058709       -2.7464457427       -2.8785399759  CLST      92              1.0000000000
       459        92  DCM       CL1             2.4009499364       -1.0349955945       -1.3165179184  CLST      92              1.0000000000
       460        92  DCM       CL2             1.8974359308       -1.0929326668       -4.2001624426  CLST      92              1.0000000000
       461        93  DCM       C              -1.5013771778       -0.9993593152       -1.9769536042  CLST      93              1.0000000000
       462        93  DCM       H1             -1.9988228977       -0.2860555494       -1.2861699211  CLST      93              1.0000000000
       463        93  DCM       H2             -0.8362361695       -0.4684633752       -2.6904868250  CLST      93              1.0000000000
       464        93  DCM       CL1            -2.7498841840       -1.8900028060       -2.8960655735  CLST      93              1.0000000000
       465        93  DCM       CL2            -0.5238743238       -2.1464993909       -1.0192734163  CLST      93              1.0000000000
       466        94  DCM       C              -2.3040423634        0.3532696090        0.9473762363  CLST      94              1.0000000000
       467        94  DCM       H1             -2.9725184881       -0.2216425711        1.6220118299  CLST      94              1.0000000000
       468        94  DCM       H2             -1.4804407676       -0.2820383611        0.5666638228  CLST      94              1.0000000000
       469        94  DCM       CL1            -3.2575647957        0.9511651023       -0.4347638173  CLST      94              1.0000000000
       470        94  DCM       CL2            -1.6155272392        1.7362652978        1.8417855202  CLST      94              1.0000000000
       471        95  DCM       C               3.2666258441        0.1426870597       -0.5993634918  CLST      95              1.0000000000
       472        95  DCM       H1              3.6257459063       -0.6781398789        0.0572882256  CLST      95              1.0000000000
       473        95  DCM       H2              3.4544797422       -0.0831499328       -1.6693380836  CLST      95              1.0000000000
       474        95  DCM       CL1             1.5100464669        0.3617679236       -0.3651471434  CLST      95              1.0000000000
       475        95  DCM       CL2             4.1271084305        1.6448440508       -0.1647367443  CLST      95              1.0000000000
       476        96  DCM       C              -2.2790847688       -1.3878217249        1.4897286330  CLST      96              1.0000000000
       477        96  DCM       H1             -3.3752607817       -1.2143354715        1.5141872062  CLST      96              1.0000000000
       478        96  DCM       H2             -2.0089093265       -2.3044099287        2.0557359138  CLST      96              1.0000000000
       479        96  DCM       CL1            -1.7523142454       -1.5753890307       -0.2086498975  CLST      96              1.0000000000
       480        96  DCM       CL2            -1.4566773079        0.0165864780        2.2270406025  CLST      96              1.0000000000
       481        97  DCM       C              -0.0855641834        1.8686652244       -2.8061542082  CLST      97              1.0000000000
       482        97  DCM       H1             -0.5794275073        0.9259364331       -2.4885817745  CLST      97              1.0000000000
       483        97  DCM       H2              1.0181735501        1.7616597589       -2.7942952221  CLST      97              1.0000000000
       484        97  DCM       CL1            -0.6029164829        2.2754085394       -4.4674891831  CLST      97              1.0000000000
       485        97  DCM       CL2            -0.5495885000        3.1797410012       -1.6838092325  CLST      97              1.0000000000
       486        98  DCM       C              -3.2325705751        2.2840722021        1.1241013914  CLST      98              1.0000000000
       487        98  DCM       H1             -2.6299875065        3.0099709343        0.5383553977  CLST      98              1.0000000000
       488        98  DCM       H2             -3.8014732083        1.6047831735        0.4552027181  CLST      98              1.0000000000
       489        98  DCM       CL1            -2.1382353490        1.3099532557        2.1455842511  CLST      98              1.0000000000
       490        98  DCM       CL2            -4.3782914150        3.1837888429        2.1583075936  CLST      98              1.0000000000
