* CHARMM CGENFF SD/ABNR before MLpot (MM only)
*
        15  EXT
         1         1  DCM   C           -10.2894037998       14.3747053345       14.2692751462  CLST           1          1.0000000000
         2         1  DCM   H1           -9.9100709786       14.0007150059       13.2958022352  CLST           1          1.0000000000
         3         1  DCM   H2           -9.4803692563       14.8620293700       14.8551157600  CLST           1          1.0000000000
         4         1  DCM   CL1         -11.5869528509       15.5677802436       13.9681247570  CLST           1          1.0000000000
         5         1  DCM   CL2         -10.9372031144       12.9977700460       15.2086821016  CLST           1          1.0000000000
         6         2  ACO   O1          -12.6019693489       15.5301234053      -13.3942800462  CLST           2          1.0000000000
         7         2  ACO   C1          -13.3314059571       14.6457075440      -13.8253394181  CLST           2          1.0000000000
         8         2  ACO   C2          -14.7781889515       14.8842208746      -14.0930778479  CLST           2          1.0000000000
         9         2  ACO   C3          -12.8158466835       13.2751037878      -14.1099826178  CLST           2          1.0000000000
        10         2  ACO   H21         -15.0150215847       15.9443149714      -13.8670408958  CLST           2          1.0000000000
        11         2  ACO   H22         -15.0036409641       14.6784140832      -15.1571290171  CLST           2          1.0000000000
        12         2  ACO   H23         -15.3932557882       14.2269352746      -13.4447842121  CLST           2          1.0000000000
        13         2  ACO   H31         -13.3431633601       12.5354971217      -13.4716717339  CLST           2          1.0000000000
        14         2  ACO   H32         -12.9706903188       13.0283016720      -15.1782591597  CLST           2          1.0000000000
        15         2  ACO   H33         -11.7288170431       13.2453812654      -13.8804350515  CLST           2          1.0000000000
