PSF EXT CMAP XPLOR

         2 !NTITLE
* EXECUTING CHARMM SCRIPT FROM PYTHON                                           
*  DATE:     6/28/26      3:31:39      CREATED BY USER: boittier                

       100 !NATOM
         1 CLST     1        DCM      C        CG321     0.00000       12.0110           0
         2 CLST     1        DCM      H1       HGA2      0.00000       1.00800           0
         3 CLST     1        DCM      H2       HGA2      0.00000       1.00800           0
         4 CLST     1        DCM      CL1      CLGA1     0.00000       35.4530           0
         5 CLST     1        DCM      CL2      CLGA1     0.00000       35.4530           0
         6 CLST     2        DCM      C        CG321     0.00000       12.0110           0
         7 CLST     2        DCM      H1       HGA2      0.00000       1.00800           0
         8 CLST     2        DCM      H2       HGA2      0.00000       1.00800           0
         9 CLST     2        DCM      CL1      CLGA1     0.00000       35.4530           0
        10 CLST     2        DCM      CL2      CLGA1     0.00000       35.4530           0
        11 CLST     3        DCM      C        CG321     0.00000       12.0110           0
        12 CLST     3        DCM      H1       HGA2      0.00000       1.00800           0
        13 CLST     3        DCM      H2       HGA2      0.00000       1.00800           0
        14 CLST     3        DCM      CL1      CLGA1     0.00000       35.4530           0
        15 CLST     3        DCM      CL2      CLGA1     0.00000       35.4530           0
        16 CLST     4        DCM      C        CG321     0.00000       12.0110           0
        17 CLST     4        DCM      H1       HGA2      0.00000       1.00800           0
        18 CLST     4        DCM      H2       HGA2      0.00000       1.00800           0
        19 CLST     4        DCM      CL1      CLGA1     0.00000       35.4530           0
        20 CLST     4        DCM      CL2      CLGA1     0.00000       35.4530           0
        21 CLST     5        DCM      C        CG321     0.00000       12.0110           0
        22 CLST     5        DCM      H1       HGA2      0.00000       1.00800           0
        23 CLST     5        DCM      H2       HGA2      0.00000       1.00800           0
        24 CLST     5        DCM      CL1      CLGA1     0.00000       35.4530           0
        25 CLST     5        DCM      CL2      CLGA1     0.00000       35.4530           0
        26 CLST     6        DCM      C        CG321     0.00000       12.0110           0
        27 CLST     6        DCM      H1       HGA2      0.00000       1.00800           0
        28 CLST     6        DCM      H2       HGA2      0.00000       1.00800           0
        29 CLST     6        DCM      CL1      CLGA1     0.00000       35.4530           0
        30 CLST     6        DCM      CL2      CLGA1     0.00000       35.4530           0
        31 CLST     7        DCM      C        CG321     0.00000       12.0110           0
        32 CLST     7        DCM      H1       HGA2      0.00000       1.00800           0
        33 CLST     7        DCM      H2       HGA2      0.00000       1.00800           0
        34 CLST     7        DCM      CL1      CLGA1     0.00000       35.4530           0
        35 CLST     7        DCM      CL2      CLGA1     0.00000       35.4530           0
        36 CLST     8        DCM      C        CG321     0.00000       12.0110           0
        37 CLST     8        DCM      H1       HGA2      0.00000       1.00800           0
        38 CLST     8        DCM      H2       HGA2      0.00000       1.00800           0
        39 CLST     8        DCM      CL1      CLGA1     0.00000       35.4530           0
        40 CLST     8        DCM      CL2      CLGA1     0.00000       35.4530           0
        41 CLST     9        DCM      C        CG321     0.00000       12.0110           0
        42 CLST     9        DCM      H1       HGA2      0.00000       1.00800           0
        43 CLST     9        DCM      H2       HGA2      0.00000       1.00800           0
        44 CLST     9        DCM      CL1      CLGA1     0.00000       35.4530           0
        45 CLST     9        DCM      CL2      CLGA1     0.00000       35.4530           0
        46 CLST     10       DCM      C        CG321     0.00000       12.0110           0
        47 CLST     10       DCM      H1       HGA2      0.00000       1.00800           0
        48 CLST     10       DCM      H2       HGA2      0.00000       1.00800           0
        49 CLST     10       DCM      CL1      CLGA1     0.00000       35.4530           0
        50 CLST     10       DCM      CL2      CLGA1     0.00000       35.4530           0
        51 CLST     11       DCM      C        CG321     0.00000       12.0110           0
        52 CLST     11       DCM      H1       HGA2      0.00000       1.00800           0
        53 CLST     11       DCM      H2       HGA2      0.00000       1.00800           0
        54 CLST     11       DCM      CL1      CLGA1     0.00000       35.4530           0
        55 CLST     11       DCM      CL2      CLGA1     0.00000       35.4530           0
        56 CLST     12       DCM      C        CG321     0.00000       12.0110           0
        57 CLST     12       DCM      H1       HGA2      0.00000       1.00800           0
        58 CLST     12       DCM      H2       HGA2      0.00000       1.00800           0
        59 CLST     12       DCM      CL1      CLGA1     0.00000       35.4530           0
        60 CLST     12       DCM      CL2      CLGA1     0.00000       35.4530           0
        61 CLST     13       DCM      C        CG321     0.00000       12.0110           0
        62 CLST     13       DCM      H1       HGA2      0.00000       1.00800           0
        63 CLST     13       DCM      H2       HGA2      0.00000       1.00800           0
        64 CLST     13       DCM      CL1      CLGA1     0.00000       35.4530           0
        65 CLST     13       DCM      CL2      CLGA1     0.00000       35.4530           0
        66 CLST     14       DCM      C        CG321     0.00000       12.0110           0
        67 CLST     14       DCM      H1       HGA2      0.00000       1.00800           0
        68 CLST     14       DCM      H2       HGA2      0.00000       1.00800           0
        69 CLST     14       DCM      CL1      CLGA1     0.00000       35.4530           0
        70 CLST     14       DCM      CL2      CLGA1     0.00000       35.4530           0
        71 CLST     15       DCM      C        CG321     0.00000       12.0110           0
        72 CLST     15       DCM      H1       HGA2      0.00000       1.00800           0
        73 CLST     15       DCM      H2       HGA2      0.00000       1.00800           0
        74 CLST     15       DCM      CL1      CLGA1     0.00000       35.4530           0
        75 CLST     15       DCM      CL2      CLGA1     0.00000       35.4530           0
        76 CLST     16       DCM      C        CG321     0.00000       12.0110           0
        77 CLST     16       DCM      H1       HGA2      0.00000       1.00800           0
        78 CLST     16       DCM      H2       HGA2      0.00000       1.00800           0
        79 CLST     16       DCM      CL1      CLGA1     0.00000       35.4530           0
        80 CLST     16       DCM      CL2      CLGA1     0.00000       35.4530           0
        81 CLST     17       DCM      C        CG321     0.00000       12.0110           0
        82 CLST     17       DCM      H1       HGA2      0.00000       1.00800           0
        83 CLST     17       DCM      H2       HGA2      0.00000       1.00800           0
        84 CLST     17       DCM      CL1      CLGA1     0.00000       35.4530           0
        85 CLST     17       DCM      CL2      CLGA1     0.00000       35.4530           0
        86 CLST     18       DCM      C        CG321     0.00000       12.0110           0
        87 CLST     18       DCM      H1       HGA2      0.00000       1.00800           0
        88 CLST     18       DCM      H2       HGA2      0.00000       1.00800           0
        89 CLST     18       DCM      CL1      CLGA1     0.00000       35.4530           0
        90 CLST     18       DCM      CL2      CLGA1     0.00000       35.4530           0
        91 CLST     19       DCM      C        CG321     0.00000       12.0110           0
        92 CLST     19       DCM      H1       HGA2      0.00000       1.00800           0
        93 CLST     19       DCM      H2       HGA2      0.00000       1.00800           0
        94 CLST     19       DCM      CL1      CLGA1     0.00000       35.4530           0
        95 CLST     19       DCM      CL2      CLGA1     0.00000       35.4530           0
        96 CLST     20       DCM      C        CG321     0.00000       12.0110           0
        97 CLST     20       DCM      H1       HGA2      0.00000       1.00800           0
        98 CLST     20       DCM      H2       HGA2      0.00000       1.00800           0
        99 CLST     20       DCM      CL1      CLGA1     0.00000       35.4530           0
       100 CLST     20       DCM      CL2      CLGA1     0.00000       35.4530           0

        80 !NBOND: bonds
         2         1         1         4         1         5         1         3
         7         6         6         9         6        10         6         8
        12        11        11        14        11        15        11        13
        17        16        16        19        16        20        16        18
        22        21        21        24        21        25        21        23
        27        26        26        29        26        30        26        28
        32        31        31        34        31        35        31        33
        37        36        36        39        36        40        36        38
        42        41        41        44        41        45        41        43
        47        46        46        49        46        50        46        48
        52        51        51        54        51        55        51        53
        57        56        56        59        56        60        56        58
        62        61        61        64        61        65        61        63
        67        66        66        69        66        70        66        68
        72        71        71        74        71        75        71        73
        77        76        76        79        76        80        76        78
        82        81        81        84        81        85        81        83
        87        86        86        89        86        90        86        88
        92        91        91        94        91        95        91        93
        97        96        96        99        96       100        96        98

       120 !NTHETA: angles
         2         1         3         2         1         4         2         1         5
         3         1         4         3         1         5         4         1         5
         7         6         8         7         6         9         7         6        10
         8         6         9         8         6        10         9         6        10
        12        11        13        12        11        14        12        11        15
        13        11        14        13        11        15        14        11        15
        17        16        18        17        16        19        17        16        20
        18        16        19        18        16        20        19        16        20
        22        21        23        22        21        24        22        21        25
        23        21        24        23        21        25        24        21        25
        27        26        28        27        26        29        27        26        30
        28        26        29        28        26        30        29        26        30
        32        31        33        32        31        34        32        31        35
        33        31        34        33        31        35        34        31        35
        37        36        38        37        36        39        37        36        40
        38        36        39        38        36        40        39        36        40
        42        41        43        42        41        44        42        41        45
        43        41        44        43        41        45        44        41        45
        47        46        48        47        46        49        47        46        50
        48        46        49        48        46        50        49        46        50
        52        51        53        52        51        54        52        51        55
        53        51        54        53        51        55        54        51        55
        57        56        58        57        56        59        57        56        60
        58        56        59        58        56        60        59        56        60
        62        61        63        62        61        64        62        61        65
        63        61        64        63        61        65        64        61        65
        67        66        68        67        66        69        67        66        70
        68        66        69        68        66        70        69        66        70
        72        71        73        72        71        74        72        71        75
        73        71        74        73        71        75        74        71        75
        77        76        78        77        76        79        77        76        80
        78        76        79        78        76        80        79        76        80
        82        81        83        82        81        84        82        81        85
        83        81        84        83        81        85        84        81        85
        87        86        88        87        86        89        87        86        90
        88        86        89        88        86        90        89        86        90
        92        91        93        92        91        94        92        91        95
        93        91        94        93        91        95        94        91        95
        97        96        98        97        96        99        97        96       100
        98        96        99        98        96       100        99        96       100

         0 !NPHI: dihedrals


         0 !NIMPHI: impropers


         0 !NDON: donors


         0 !NACC: acceptors


      4950 !NNB
         2         3         4         5         6         7         8         9
        10        11        12        13        14        15        16        17
        18        19        20        21        22        23        24        25
        26        27        28        29        30        31        32        33
        34        35        36        37        38        39        40        41
        42        43        44        45        46        47        48        49
        50        51        52        53        54        55        56        57
        58        59        60        61        62        63        64        65
        66        67        68        69        70        71        72        73
        74        75        76        77        78        79        80        81
        82        83        84        85        86        87        88        89
        90        91        92        93        94        95        96        97
        98        99       100         3         4         5         6         7
         8         9        10        11        12        13        14        15
        16        17        18        19        20        21        22        23
        24        25        26        27        28        29        30        31
        32        33        34        35        36        37        38        39
        40        41        42        43        44        45        46        47
        48        49        50        51        52        53        54        55
        56        57        58        59        60        61        62        63
        64        65        66        67        68        69        70        71
        72        73        74        75        76        77        78        79
        80        81        82        83        84        85        86        87
        88        89        90        91        92        93        94        95
        96        97        98        99       100         4         5         6
         7         8         9        10        11        12        13        14
        15        16        17        18        19        20        21        22
        23        24        25        26        27        28        29        30
        31        32        33        34        35        36        37        38
        39        40        41        42        43        44        45        46
        47        48        49        50        51        52        53        54
        55        56        57        58        59        60        61        62
        63        64        65        66        67        68        69        70
        71        72        73        74        75        76        77        78
        79        80        81        82        83        84        85        86
        87        88        89        90        91        92        93        94
        95        96        97        98        99       100         5         6
         7         8         9        10        11        12        13        14
        15        16        17        18        19        20        21        22
        23        24        25        26        27        28        29        30
        31        32        33        34        35        36        37        38
        39        40        41        42        43        44        45        46
        47        48        49        50        51        52        53        54
        55        56        57        58        59        60        61        62
        63        64        65        66        67        68        69        70
        71        72        73        74        75        76        77        78
        79        80        81        82        83        84        85        86
        87        88        89        90        91        92        93        94
        95        96        97        98        99       100         6         7
         8         9        10        11        12        13        14        15
        16        17        18        19        20        21        22        23
        24        25        26        27        28        29        30        31
        32        33        34        35        36        37        38        39
        40        41        42        43        44        45        46        47
        48        49        50        51        52        53        54        55
        56        57        58        59        60        61        62        63
        64        65        66        67        68        69        70        71
        72        73        74        75        76        77        78        79
        80        81        82        83        84        85        86        87
        88        89        90        91        92        93        94        95
        96        97        98        99       100         7         8         9
        10        11        12        13        14        15        16        17
        18        19        20        21        22        23        24        25
        26        27        28        29        30        31        32        33
        34        35        36        37        38        39        40        41
        42        43        44        45        46        47        48        49
        50        51        52        53        54        55        56        57
        58        59        60        61        62        63        64        65
        66        67        68        69        70        71        72        73
        74        75        76        77        78        79        80        81
        82        83        84        85        86        87        88        89
        90        91        92        93        94        95        96        97
        98        99       100         8         9        10        11        12
        13        14        15        16        17        18        19        20
        21        22        23        24        25        26        27        28
        29        30        31        32        33        34        35        36
        37        38        39        40        41        42        43        44
        45        46        47        48        49        50        51        52
        53        54        55        56        57        58        59        60
        61        62        63        64        65        66        67        68
        69        70        71        72        73        74        75        76
        77        78        79        80        81        82        83        84
        85        86        87        88        89        90        91        92
        93        94        95        96        97        98        99       100
         9        10        11        12        13        14        15        16
        17        18        19        20        21        22        23        24
        25        26        27        28        29        30        31        32
        33        34        35        36        37        38        39        40
        41        42        43        44        45        46        47        48
        49        50        51        52        53        54        55        56
        57        58        59        60        61        62        63        64
        65        66        67        68        69        70        71        72
        73        74        75        76        77        78        79        80
        81        82        83        84        85        86        87        88
        89        90        91        92        93        94        95        96
        97        98        99       100        10        11        12        13
        14        15        16        17        18        19        20        21
        22        23        24        25        26        27        28        29
        30        31        32        33        34        35        36        37
        38        39        40        41        42        43        44        45
        46        47        48        49        50        51        52        53
        54        55        56        57        58        59        60        61
        62        63        64        65        66        67        68        69
        70        71        72        73        74        75        76        77
        78        79        80        81        82        83        84        85
        86        87        88        89        90        91        92        93
        94        95        96        97        98        99       100        11
        12        13        14        15        16        17        18        19
        20        21        22        23        24        25        26        27
        28        29        30        31        32        33        34        35
        36        37        38        39        40        41        42        43
        44        45        46        47        48        49        50        51
        52        53        54        55        56        57        58        59
        60        61        62        63        64        65        66        67
        68        69        70        71        72        73        74        75
        76        77        78        79        80        81        82        83
        84        85        86        87        88        89        90        91
        92        93        94        95        96        97        98        99
       100        12        13        14        15        16        17        18
        19        20        21        22        23        24        25        26
        27        28        29        30        31        32        33        34
        35        36        37        38        39        40        41        42
        43        44        45        46        47        48        49        50
        51        52        53        54        55        56        57        58
        59        60        61        62        63        64        65        66
        67        68        69        70        71        72        73        74
        75        76        77        78        79        80        81        82
        83        84        85        86        87        88        89        90
        91        92        93        94        95        96        97        98
        99       100        13        14        15        16        17        18
        19        20        21        22        23        24        25        26
        27        28        29        30        31        32        33        34
        35        36        37        38        39        40        41        42
        43        44        45        46        47        48        49        50
        51        52        53        54        55        56        57        58
        59        60        61        62        63        64        65        66
        67        68        69        70        71        72        73        74
        75        76        77        78        79        80        81        82
        83        84        85        86        87        88        89        90
        91        92        93        94        95        96        97        98
        99       100        14        15        16        17        18        19
        20        21        22        23        24        25        26        27
        28        29        30        31        32        33        34        35
        36        37        38        39        40        41        42        43
        44        45        46        47        48        49        50        51
        52        53        54        55        56        57        58        59
        60        61        62        63        64        65        66        67
        68        69        70        71        72        73        74        75
        76        77        78        79        80        81        82        83
        84        85        86        87        88        89        90        91
        92        93        94        95        96        97        98        99
       100        15        16        17        18        19        20        21
        22        23        24        25        26        27        28        29
        30        31        32        33        34        35        36        37
        38        39        40        41        42        43        44        45
        46        47        48        49        50        51        52        53
        54        55        56        57        58        59        60        61
        62        63        64        65        66        67        68        69
        70        71        72        73        74        75        76        77
        78        79        80        81        82        83        84        85
        86        87        88        89        90        91        92        93
        94        95        96        97        98        99       100        16
        17        18        19        20        21        22        23        24
        25        26        27        28        29        30        31        32
        33        34        35        36        37        38        39        40
        41        42        43        44        45        46        47        48
        49        50        51        52        53        54        55        56
        57        58        59        60        61        62        63        64
        65        66        67        68        69        70        71        72
        73        74        75        76        77        78        79        80
        81        82        83        84        85        86        87        88
        89        90        91        92        93        94        95        96
        97        98        99       100        17        18        19        20
        21        22        23        24        25        26        27        28
        29        30        31        32        33        34        35        36
        37        38        39        40        41        42        43        44
        45        46        47        48        49        50        51        52
        53        54        55        56        57        58        59        60
        61        62        63        64        65        66        67        68
        69        70        71        72        73        74        75        76
        77        78        79        80        81        82        83        84
        85        86        87        88        89        90        91        92
        93        94        95        96        97        98        99       100
        18        19        20        21        22        23        24        25
        26        27        28        29        30        31        32        33
        34        35        36        37        38        39        40        41
        42        43        44        45        46        47        48        49
        50        51        52        53        54        55        56        57
        58        59        60        61        62        63        64        65
        66        67        68        69        70        71        72        73
        74        75        76        77        78        79        80        81
        82        83        84        85        86        87        88        89
        90        91        92        93        94        95        96        97
        98        99       100        19        20        21        22        23
        24        25        26        27        28        29        30        31
        32        33        34        35        36        37        38        39
        40        41        42        43        44        45        46        47
        48        49        50        51        52        53        54        55
        56        57        58        59        60        61        62        63
        64        65        66        67        68        69        70        71
        72        73        74        75        76        77        78        79
        80        81        82        83        84        85        86        87
        88        89        90        91        92        93        94        95
        96        97        98        99       100        20        21        22
        23        24        25        26        27        28        29        30
        31        32        33        34        35        36        37        38
        39        40        41        42        43        44        45        46
        47        48        49        50        51        52        53        54
        55        56        57        58        59        60        61        62
        63        64        65        66        67        68        69        70
        71        72        73        74        75        76        77        78
        79        80        81        82        83        84        85        86
        87        88        89        90        91        92        93        94
        95        96        97        98        99       100        21        22
        23        24        25        26        27        28        29        30
        31        32        33        34        35        36        37        38
        39        40        41        42        43        44        45        46
        47        48        49        50        51        52        53        54
        55        56        57        58        59        60        61        62
        63        64        65        66        67        68        69        70
        71        72        73        74        75        76        77        78
        79        80        81        82        83        84        85        86
        87        88        89        90        91        92        93        94
        95        96        97        98        99       100        22        23
        24        25        26        27        28        29        30        31
        32        33        34        35        36        37        38        39
        40        41        42        43        44        45        46        47
        48        49        50        51        52        53        54        55
        56        57        58        59        60        61        62        63
        64        65        66        67        68        69        70        71
        72        73        74        75        76        77        78        79
        80        81        82        83        84        85        86        87
        88        89        90        91        92        93        94        95
        96        97        98        99       100        23        24        25
        26        27        28        29        30        31        32        33
        34        35        36        37        38        39        40        41
        42        43        44        45        46        47        48        49
        50        51        52        53        54        55        56        57
        58        59        60        61        62        63        64        65
        66        67        68        69        70        71        72        73
        74        75        76        77        78        79        80        81
        82        83        84        85        86        87        88        89
        90        91        92        93        94        95        96        97
        98        99       100        24        25        26        27        28
        29        30        31        32        33        34        35        36
        37        38        39        40        41        42        43        44
        45        46        47        48        49        50        51        52
        53        54        55        56        57        58        59        60
        61        62        63        64        65        66        67        68
        69        70        71        72        73        74        75        76
        77        78        79        80        81        82        83        84
        85        86        87        88        89        90        91        92
        93        94        95        96        97        98        99       100
        25        26        27        28        29        30        31        32
        33        34        35        36        37        38        39        40
        41        42        43        44        45        46        47        48
        49        50        51        52        53        54        55        56
        57        58        59        60        61        62        63        64
        65        66        67        68        69        70        71        72
        73        74        75        76        77        78        79        80
        81        82        83        84        85        86        87        88
        89        90        91        92        93        94        95        96
        97        98        99       100        26        27        28        29
        30        31        32        33        34        35        36        37
        38        39        40        41        42        43        44        45
        46        47        48        49        50        51        52        53
        54        55        56        57        58        59        60        61
        62        63        64        65        66        67        68        69
        70        71        72        73        74        75        76        77
        78        79        80        81        82        83        84        85
        86        87        88        89        90        91        92        93
        94        95        96        97        98        99       100        27
        28        29        30        31        32        33        34        35
        36        37        38        39        40        41        42        43
        44        45        46        47        48        49        50        51
        52        53        54        55        56        57        58        59
        60        61        62        63        64        65        66        67
        68        69        70        71        72        73        74        75
        76        77        78        79        80        81        82        83
        84        85        86        87        88        89        90        91
        92        93        94        95        96        97        98        99
       100        28        29        30        31        32        33        34
        35        36        37        38        39        40        41        42
        43        44        45        46        47        48        49        50
        51        52        53        54        55        56        57        58
        59        60        61        62        63        64        65        66
        67        68        69        70        71        72        73        74
        75        76        77        78        79        80        81        82
        83        84        85        86        87        88        89        90
        91        92        93        94        95        96        97        98
        99       100        29        30        31        32        33        34
        35        36        37        38        39        40        41        42
        43        44        45        46        47        48        49        50
        51        52        53        54        55        56        57        58
        59        60        61        62        63        64        65        66
        67        68        69        70        71        72        73        74
        75        76        77        78        79        80        81        82
        83        84        85        86        87        88        89        90
        91        92        93        94        95        96        97        98
        99       100        30        31        32        33        34        35
        36        37        38        39        40        41        42        43
        44        45        46        47        48        49        50        51
        52        53        54        55        56        57        58        59
        60        61        62        63        64        65        66        67
        68        69        70        71        72        73        74        75
        76        77        78        79        80        81        82        83
        84        85        86        87        88        89        90        91
        92        93        94        95        96        97        98        99
       100        31        32        33        34        35        36        37
        38        39        40        41        42        43        44        45
        46        47        48        49        50        51        52        53
        54        55        56        57        58        59        60        61
        62        63        64        65        66        67        68        69
        70        71        72        73        74        75        76        77
        78        79        80        81        82        83        84        85
        86        87        88        89        90        91        92        93
        94        95        96        97        98        99       100        32
        33        34        35        36        37        38        39        40
        41        42        43        44        45        46        47        48
        49        50        51        52        53        54        55        56
        57        58        59        60        61        62        63        64
        65        66        67        68        69        70        71        72
        73        74        75        76        77        78        79        80
        81        82        83        84        85        86        87        88
        89        90        91        92        93        94        95        96
        97        98        99       100        33        34        35        36
        37        38        39        40        41        42        43        44
        45        46        47        48        49        50        51        52
        53        54        55        56        57        58        59        60
        61        62        63        64        65        66        67        68
        69        70        71        72        73        74        75        76
        77        78        79        80        81        82        83        84
        85        86        87        88        89        90        91        92
        93        94        95        96        97        98        99       100
        34        35        36        37        38        39        40        41
        42        43        44        45        46        47        48        49
        50        51        52        53        54        55        56        57
        58        59        60        61        62        63        64        65
        66        67        68        69        70        71        72        73
        74        75        76        77        78        79        80        81
        82        83        84        85        86        87        88        89
        90        91        92        93        94        95        96        97
        98        99       100        35        36        37        38        39
        40        41        42        43        44        45        46        47
        48        49        50        51        52        53        54        55
        56        57        58        59        60        61        62        63
        64        65        66        67        68        69        70        71
        72        73        74        75        76        77        78        79
        80        81        82        83        84        85        86        87
        88        89        90        91        92        93        94        95
        96        97        98        99       100        36        37        38
        39        40        41        42        43        44        45        46
        47        48        49        50        51        52        53        54
        55        56        57        58        59        60        61        62
        63        64        65        66        67        68        69        70
        71        72        73        74        75        76        77        78
        79        80        81        82        83        84        85        86
        87        88        89        90        91        92        93        94
        95        96        97        98        99       100        37        38
        39        40        41        42        43        44        45        46
        47        48        49        50        51        52        53        54
        55        56        57        58        59        60        61        62
        63        64        65        66        67        68        69        70
        71        72        73        74        75        76        77        78
        79        80        81        82        83        84        85        86
        87        88        89        90        91        92        93        94
        95        96        97        98        99       100        38        39
        40        41        42        43        44        45        46        47
        48        49        50        51        52        53        54        55
        56        57        58        59        60        61        62        63
        64        65        66        67        68        69        70        71
        72        73        74        75        76        77        78        79
        80        81        82        83        84        85        86        87
        88        89        90        91        92        93        94        95
        96        97        98        99       100        39        40        41
        42        43        44        45        46        47        48        49
        50        51        52        53        54        55        56        57
        58        59        60        61        62        63        64        65
        66        67        68        69        70        71        72        73
        74        75        76        77        78        79        80        81
        82        83        84        85        86        87        88        89
        90        91        92        93        94        95        96        97
        98        99       100        40        41        42        43        44
        45        46        47        48        49        50        51        52
        53        54        55        56        57        58        59        60
        61        62        63        64        65        66        67        68
        69        70        71        72        73        74        75        76
        77        78        79        80        81        82        83        84
        85        86        87        88        89        90        91        92
        93        94        95        96        97        98        99       100
        41        42        43        44        45        46        47        48
        49        50        51        52        53        54        55        56
        57        58        59        60        61        62        63        64
        65        66        67        68        69        70        71        72
        73        74        75        76        77        78        79        80
        81        82        83        84        85        86        87        88
        89        90        91        92        93        94        95        96
        97        98        99       100        42        43        44        45
        46        47        48        49        50        51        52        53
        54        55        56        57        58        59        60        61
        62        63        64        65        66        67        68        69
        70        71        72        73        74        75        76        77
        78        79        80        81        82        83        84        85
        86        87        88        89        90        91        92        93
        94        95        96        97        98        99       100        43
        44        45        46        47        48        49        50        51
        52        53        54        55        56        57        58        59
        60        61        62        63        64        65        66        67
        68        69        70        71        72        73        74        75
        76        77        78        79        80        81        82        83
        84        85        86        87        88        89        90        91
        92        93        94        95        96        97        98        99
       100        44        45        46        47        48        49        50
        51        52        53        54        55        56        57        58
        59        60        61        62        63        64        65        66
        67        68        69        70        71        72        73        74
        75        76        77        78        79        80        81        82
        83        84        85        86        87        88        89        90
        91        92        93        94        95        96        97        98
        99       100        45        46        47        48        49        50
        51        52        53        54        55        56        57        58
        59        60        61        62        63        64        65        66
        67        68        69        70        71        72        73        74
        75        76        77        78        79        80        81        82
        83        84        85        86        87        88        89        90
        91        92        93        94        95        96        97        98
        99       100        46        47        48        49        50        51
        52        53        54        55        56        57        58        59
        60        61        62        63        64        65        66        67
        68        69        70        71        72        73        74        75
        76        77        78        79        80        81        82        83
        84        85        86        87        88        89        90        91
        92        93        94        95        96        97        98        99
       100        47        48        49        50        51        52        53
        54        55        56        57        58        59        60        61
        62        63        64        65        66        67        68        69
        70        71        72        73        74        75        76        77
        78        79        80        81        82        83        84        85
        86        87        88        89        90        91        92        93
        94        95        96        97        98        99       100        48
        49        50        51        52        53        54        55        56
        57        58        59        60        61        62        63        64
        65        66        67        68        69        70        71        72
        73        74        75        76        77        78        79        80
        81        82        83        84        85        86        87        88
        89        90        91        92        93        94        95        96
        97        98        99       100        49        50        51        52
        53        54        55        56        57        58        59        60
        61        62        63        64        65        66        67        68
        69        70        71        72        73        74        75        76
        77        78        79        80        81        82        83        84
        85        86        87        88        89        90        91        92
        93        94        95        96        97        98        99       100
        50        51        52        53        54        55        56        57
        58        59        60        61        62        63        64        65
        66        67        68        69        70        71        72        73
        74        75        76        77        78        79        80        81
        82        83        84        85        86        87        88        89
        90        91        92        93        94        95        96        97
        98        99       100        51        52        53        54        55
        56        57        58        59        60        61        62        63
        64        65        66        67        68        69        70        71
        72        73        74        75        76        77        78        79
        80        81        82        83        84        85        86        87
        88        89        90        91        92        93        94        95
        96        97        98        99       100        52        53        54
        55        56        57        58        59        60        61        62
        63        64        65        66        67        68        69        70
        71        72        73        74        75        76        77        78
        79        80        81        82        83        84        85        86
        87        88        89        90        91        92        93        94
        95        96        97        98        99       100        53        54
        55        56        57        58        59        60        61        62
        63        64        65        66        67        68        69        70
        71        72        73        74        75        76        77        78
        79        80        81        82        83        84        85        86
        87        88        89        90        91        92        93        94
        95        96        97        98        99       100        54        55
        56        57        58        59        60        61        62        63
        64        65        66        67        68        69        70        71
        72        73        74        75        76        77        78        79
        80        81        82        83        84        85        86        87
        88        89        90        91        92        93        94        95
        96        97        98        99       100        55        56        57
        58        59        60        61        62        63        64        65
        66        67        68        69        70        71        72        73
        74        75        76        77        78        79        80        81
        82        83        84        85        86        87        88        89
        90        91        92        93        94        95        96        97
        98        99       100        56        57        58        59        60
        61        62        63        64        65        66        67        68
        69        70        71        72        73        74        75        76
        77        78        79        80        81        82        83        84
        85        86        87        88        89        90        91        92
        93        94        95        96        97        98        99       100
        57        58        59        60        61        62        63        64
        65        66        67        68        69        70        71        72
        73        74        75        76        77        78        79        80
        81        82        83        84        85        86        87        88
        89        90        91        92        93        94        95        96
        97        98        99       100        58        59        60        61
        62        63        64        65        66        67        68        69
        70        71        72        73        74        75        76        77
        78        79        80        81        82        83        84        85
        86        87        88        89        90        91        92        93
        94        95        96        97        98        99       100        59
        60        61        62        63        64        65        66        67
        68        69        70        71        72        73        74        75
        76        77        78        79        80        81        82        83
        84        85        86        87        88        89        90        91
        92        93        94        95        96        97        98        99
       100        60        61        62        63        64        65        66
        67        68        69        70        71        72        73        74
        75        76        77        78        79        80        81        82
        83        84        85        86        87        88        89        90
        91        92        93        94        95        96        97        98
        99       100        61        62        63        64        65        66
        67        68        69        70        71        72        73        74
        75        76        77        78        79        80        81        82
        83        84        85        86        87        88        89        90
        91        92        93        94        95        96        97        98
        99       100        62        63        64        65        66        67
        68        69        70        71        72        73        74        75
        76        77        78        79        80        81        82        83
        84        85        86        87        88        89        90        91
        92        93        94        95        96        97        98        99
       100        63        64        65        66        67        68        69
        70        71        72        73        74        75        76        77
        78        79        80        81        82        83        84        85
        86        87        88        89        90        91        92        93
        94        95        96        97        98        99       100        64
        65        66        67        68        69        70        71        72
        73        74        75        76        77        78        79        80
        81        82        83        84        85        86        87        88
        89        90        91        92        93        94        95        96
        97        98        99       100        65        66        67        68
        69        70        71        72        73        74        75        76
        77        78        79        80        81        82        83        84
        85        86        87        88        89        90        91        92
        93        94        95        96        97        98        99       100
        66        67        68        69        70        71        72        73
        74        75        76        77        78        79        80        81
        82        83        84        85        86        87        88        89
        90        91        92        93        94        95        96        97
        98        99       100        67        68        69        70        71
        72        73        74        75        76        77        78        79
        80        81        82        83        84        85        86        87
        88        89        90        91        92        93        94        95
        96        97        98        99       100        68        69        70
        71        72        73        74        75        76        77        78
        79        80        81        82        83        84        85        86
        87        88        89        90        91        92        93        94
        95        96        97        98        99       100        69        70
        71        72        73        74        75        76        77        78
        79        80        81        82        83        84        85        86
        87        88        89        90        91        92        93        94
        95        96        97        98        99       100        70        71
        72        73        74        75        76        77        78        79
        80        81        82        83        84        85        86        87
        88        89        90        91        92        93        94        95
        96        97        98        99       100        71        72        73
        74        75        76        77        78        79        80        81
        82        83        84        85        86        87        88        89
        90        91        92        93        94        95        96        97
        98        99       100        72        73        74        75        76
        77        78        79        80        81        82        83        84
        85        86        87        88        89        90        91        92
        93        94        95        96        97        98        99       100
        73        74        75        76        77        78        79        80
        81        82        83        84        85        86        87        88
        89        90        91        92        93        94        95        96
        97        98        99       100        74        75        76        77
        78        79        80        81        82        83        84        85
        86        87        88        89        90        91        92        93
        94        95        96        97        98        99       100        75
        76        77        78        79        80        81        82        83
        84        85        86        87        88        89        90        91
        92        93        94        95        96        97        98        99
       100        76        77        78        79        80        81        82
        83        84        85        86        87        88        89        90
        91        92        93        94        95        96        97        98
        99       100        77        78        79        80        81        82
        83        84        85        86        87        88        89        90
        91        92        93        94        95        96        97        98
        99       100        78        79        80        81        82        83
        84        85        86        87        88        89        90        91
        92        93        94        95        96        97        98        99
       100        79        80        81        82        83        84        85
        86        87        88        89        90        91        92        93
        94        95        96        97        98        99       100        80
        81        82        83        84        85        86        87        88
        89        90        91        92        93        94        95        96
        97        98        99       100        81        82        83        84
        85        86        87        88        89        90        91        92
        93        94        95        96        97        98        99       100
        82        83        84        85        86        87        88        89
        90        91        92        93        94        95        96        97
        98        99       100        83        84        85        86        87
        88        89        90        91        92        93        94        95
        96        97        98        99       100        84        85        86
        87        88        89        90        91        92        93        94
        95        96        97        98        99       100        85        86
        87        88        89        90        91        92        93        94
        95        96        97        98        99       100        86        87
        88        89        90        91        92        93        94        95
        96        97        98        99       100        87        88        89
        90        91        92        93        94        95        96        97
        98        99       100        88        89        90        91        92
        93        94        95        96        97        98        99       100
        89        90        91        92        93        94        95        96
        97        98        99       100        90        91        92        93
        94        95        96        97        98        99       100        91
        92        93        94        95        96        97        98        99
       100        92        93        94        95        96        97        98
        99       100        93        94        95        96        97        98
        99       100        94        95        96        97        98        99
       100        95        96        97        98        99       100        96
        97        98        99       100        97        98        99       100
        98        99       100        99       100       100
        99       197       294       390       485       579       672       764
       855       945      1034      1122      1209      1295      1380      1464
      1547      1629      1710      1790      1869      1947      2024      2100
      2175      2249      2322      2394      2465      2535      2604      2672
      2739      2805      2870      2934      2997      3059      3120      3180
      3239      3297      3354      3410      3465      3519      3572      3624
      3675      3725      3774      3822      3869      3915      3960      4004
      4047      4089      4130      4170      4209      4247      4284      4320
      4355      4389      4422      4454      4485      4515      4544      4572
      4599      4625      4650      4674      4697      4719      4740      4760
      4779      4797      4814      4830      4845      4859      4872      4884
      4895      4905      4914      4922      4929      4935      4940      4944
      4947      4949      4950      4950

        20         0 !NGRP NST2
         0         1         0         5         1         0        10         1         0
        15         1         0        20         1         0        25         1         0
        30         1         0        35         1         0        40         1         0
        45         1         0        50         1         0        55         1         0
        60         1         0        65         1         0        70         1         0
        75         1         0        80         1         0        85         1         0
        90         1         0        95         1         0

         0         0 !NUMLP NUMLPH

         0 !NCRTERM: cross-terms

