* CHARMM CGENFF SD/ABNR BEFORE MLPOT (MM ONLY)
*  DATE:     6/28/26      2: 0:37      CREATED BY USER: boittier
*
       490  EXT
         1         1  DCM       C              -8.5586246499        3.2810002144        8.3304097325  CLST      1               1.0000000000
         2         1  DCM       H1             -8.2941575009        4.3282711961        8.5820740510  CLST      1               1.0000000000
         3         1  DCM       H2             -7.6483043397        2.6703601328        8.1567614803  CLST      1               1.0000000000
         4         1  DCM       CL1            -9.5564322378        3.2811879457        6.8488783835  CLST      1               1.0000000000
         5         1  DCM       CL2            -9.4821085302        2.5750082518        9.6864679290  CLST      1               1.0000000000
         6         2  DCM       C               3.2523455385       -5.6724147528        2.5559370828  CLST      2               1.0000000000
         7         2  DCM       H1              2.5785882341       -6.3130431874        3.1606550658  CLST      2               1.0000000000
         8         2  DCM       H2              3.6592435390       -4.8413414071        3.1690980899  CLST      2               1.0000000000
         9         2  DCM       CL1             4.6062297609       -6.6649235919        1.9439758076  CLST      2               1.0000000000
        10         2  DCM       CL2             2.3338756848       -4.9911946865        1.1837277655  CLST      2               1.0000000000
        11         3  DCM       C              -7.7144391934       -2.9677127900      -10.0721033082  CLST      3               1.0000000000
        12         3  DCM       H1             -8.2812494164       -3.4353335953       -9.2400583249  CLST      3               1.0000000000
        13         3  DCM       H2             -8.0157038039       -1.9087431607      -10.2138280040  CLST      3               1.0000000000
        14         3  DCM       CL1            -5.9683097891       -3.0269350152       -9.6935543606  CLST      3               1.0000000000
        15         3  DCM       CL2            -8.0464357962       -3.8727065416      -11.5772907637  CLST      3               1.0000000000
        16         4  DCM       C               2.0401883159        5.7924659187        9.3806168343  CLST      4               1.0000000000
        17         4  DCM       H1              1.5457240187        6.3742109638       10.1871049873  CLST      4               1.0000000000
        18         4  DCM       H2              3.1324703617        5.7058358370        9.5628860359  CLST      4               1.0000000000
        19         4  DCM       CL1             1.3281970963        4.1530901469        9.3275060035  CLST      4               1.0000000000
        20         4  DCM       CL2             1.7759806517        6.6219521920        7.8188792822  CLST      4               1.0000000000
        21         5  DCM       C              -8.7536415947        9.3993580353       -5.4417257444  CLST      5               1.0000000000
        22         5  DCM       H1             -9.7338346749        9.2755937853       -4.9349422764  CLST      5               1.0000000000
        23         5  DCM       H2             -7.9608784262        9.6845528331       -4.7177616806  CLST      5               1.0000000000
        24         5  DCM       CL1            -8.3007389770        7.8552286554       -6.2173898130  CLST      5               1.0000000000
        25         5  DCM       CL2            -8.8981185014       10.6786859848       -6.6807357298  CLST      5               1.0000000000
        26         6  DCM       C             -12.0691575693       -4.6596986882       -6.7176385942  CLST      6               1.0000000000
        27         6  DCM       H1            -11.9073913032       -4.7799341484       -5.6253257180  CLST      6               1.0000000000
        28         6  DCM       H2            -12.5730686385       -5.5508288370       -7.1488928288  CLST      6               1.0000000000
        29         6  DCM       CL1           -13.0862609037       -3.2175486139       -7.0003775432  CLST      6               1.0000000000
        30         6  DCM       CL2           -10.4873834298       -4.4484859139       -7.5192260532  CLST      6               1.0000000000
        31         7  DCM       C              -7.9883461146        8.3522832828       -9.8438559687  CLST      7               1.0000000000
        32         7  DCM       H1             -8.3353814166        9.1571370703       -9.1623804627  CLST      7               1.0000000000
        33         7  DCM       H2             -7.9621775266        8.7043042279      -10.8968362905  CLST      7               1.0000000000
        34         7  DCM       CL1            -6.3422663768        7.8514466464       -9.3567035862  CLST      7               1.0000000000
        35         7  DCM       CL2            -9.1101350955        6.9646723443       -9.7220786800  CLST      7               1.0000000000
        36         8  DCM       C               1.1133783001        7.1718413347        3.9618622329  CLST      8               1.0000000000
        37         8  DCM       H1              0.4858427993        6.6045177447        3.2439570442  CLST      8               1.0000000000
        38         8  DCM       H2              0.6399995600        7.1991356053        4.9659350574  CLST      8               1.0000000000
        39         8  DCM       CL1             2.7115085980        6.3813819249        4.0906042536  CLST      8               1.0000000000
        40         8  DCM       CL2             1.3044042816        8.8433918082        3.3599872243  CLST      8               1.0000000000
        41         9  DCM       C              -2.5688214468       -5.6058296802       -3.4638962352  CLST      9               1.0000000000
        42         9  DCM       H1             -2.6147201180       -4.6148950802       -2.9658607203  CLST      9               1.0000000000
        43         9  DCM       H2             -1.8921934214       -6.2982404821       -2.9188448650  CLST      9               1.0000000000
        44         9  DCM       CL1            -1.9580431911       -5.3806819673       -5.1280412040  CLST      9               1.0000000000
        45         9  DCM       CL2            -4.2129207265       -6.3058400331       -3.4995706407  CLST      9               1.0000000000
        46        10  DCM       C              -3.8813984123       -8.1738901358       -6.6911255558  CLST      10              1.0000000000
        47        10  DCM       H1             -3.9792211424       -7.1054718509       -6.4067731224  CLST      10              1.0000000000
        48        10  DCM       H2             -3.4810594579       -8.2769427587       -7.7215186432  CLST      10              1.0000000000
        49        10  DCM       CL1            -2.7747170141       -8.9904209233       -5.5477304133  CLST      10              1.0000000000
        50        10  DCM       CL2            -5.4947117609       -8.9323718931       -6.6178273969  CLST      10              1.0000000000
        51        11  DCM       C              -4.3041220042       10.5545375098       10.2274748201  CLST      11              1.0000000000
        52        11  DCM       H1             -4.5459967161       11.3810024842       10.9287450022  CLST      11              1.0000000000
        53        11  DCM       H2             -4.9030244243       10.6366220390        9.2960628044  CLST      11              1.0000000000
        54        11  DCM       CL1            -2.5667734533       10.6274329608        9.8122998025  CLST      11              1.0000000000
        55        11  DCM       CL2            -4.6712095199        8.9949849153       11.0195867730  CLST      11              1.0000000000
        56        12  DCM       C              -2.9128649020       -9.1981877886       -1.3377986204  CLST      12              1.0000000000
        57        12  DCM       H1             -3.0018962832       -8.6384357348       -2.2916893139  CLST      12              1.0000000000
        58        12  DCM       H2             -3.9088934440       -9.5178702123       -0.9665666661  CLST      12              1.0000000000
        59        12  DCM       CL1            -1.9069265796      -10.6466309753       -1.6176177961  CLST      12              1.0000000000
        60        12  DCM       CL2            -2.1493086173       -8.1493132879       -0.1119598605  CLST      12              1.0000000000
        61        13  DCM       C              -4.9697247863        9.6251661179        5.8241543233  CLST      13              1.0000000000
        62        13  DCM       H1             -4.4160035754        9.5518644835        4.8651009916  CLST      13              1.0000000000
        63        13  DCM       H2             -6.0117277732        9.2574715269        5.7114318181  CLST      13              1.0000000000
        64        13  DCM       CL1            -4.1343984925        8.6378105867        7.0543521380  CLST      13              1.0000000000
        65        13  DCM       CL2            -5.0035069091       11.3337526835        6.3459145084  CLST      13              1.0000000000
        66        14  DCM       C              -1.1671259861       10.9728633963        6.3152887936  CLST      14              1.0000000000
        67        14  DCM       H1             -2.0691879242       11.1710601613        6.9310201824  CLST      14              1.0000000000
        68        14  DCM       H2             -0.3565588458       11.6946309736        6.5500581005  CLST      14              1.0000000000
        69        14  DCM       CL1            -0.5865067824        9.3163425588        6.6516759280  CLST      14              1.0000000000
        70        14  DCM       CL2            -1.6017490600       11.1264238692        4.5886265602  CLST      14              1.0000000000
        71        15  DCM       C               8.8028572337       -7.3141147847       -2.5801652054  CLST      15              1.0000000000
        72        15  DCM       H1              8.4022233226       -6.2855228307       -2.7034582006  CLST      15              1.0000000000
        73        15  DCM       H2              9.9053061052       -7.3318819437       -2.7141173219  CLST      15              1.0000000000
        74        15  DCM       CL1             8.4069915376       -7.8981042360       -0.9369911944  CLST      15              1.0000000000
        75        15  DCM       CL2             8.0503528539       -8.3824011791       -3.8014939808  CLST      15              1.0000000000
        76        16  DCM       C              -9.1457482238      -11.2583165404       -3.2905432833  CLST      16              1.0000000000
        77        16  DCM       H1             -9.3709898690      -12.3429973883       -3.3625500017  CLST      16              1.0000000000
        78        16  DCM       H2             -8.3617563871      -11.0660814795       -2.5282515175  CLST      16              1.0000000000
        79        16  DCM       CL1            -8.5665213686      -10.6789526239       -4.8769199179  CLST      16              1.0000000000
        80        16  DCM       CL2           -10.6342173597      -10.3794800657       -2.8386120587  CLST      16              1.0000000000
        81        17  DCM       C               0.6070446056        7.8946762707       -3.1015723302  CLST      17              1.0000000000
        82        17  DCM       H1              1.0551824100        8.9077427802       -3.0238995074  CLST      17              1.0000000000
        83        17  DCM       H2             -0.0644564162        7.6892984350       -2.2424313588  CLST      17              1.0000000000
        84        17  DCM       CL1            -0.3287416093        7.7819827426       -4.6189428168  CLST      17              1.0000000000
        85        17  DCM       CL2             1.9146898554        6.6821436528       -3.1134124688  CLST      17              1.0000000000
        86        18  DCM       C              -1.6906897891        7.0169249623        9.3273495432  CLST      18              1.0000000000
        87        18  DCM       H1             -0.7903826997        7.6441807316        9.1585747075  CLST      18              1.0000000000
        88        18  DCM       H2             -2.6053181449        7.6425653579        9.3800551176  CLST      18              1.0000000000
        89        18  DCM       CL1            -1.8593849664        5.8594954046        7.9774432697  CLST      18              1.0000000000
        90        18  DCM       CL2            -1.5043862581        6.1285694643       10.8660242782  CLST      18              1.0000000000
        91        19  DCM       C               3.7342149992        9.8225898802       -6.9832525642  CLST      19              1.0000000000
        92        19  DCM       H1              4.4371467321       10.6787655885       -6.9038936030  CLST      19              1.0000000000
        93        19  DCM       H2              4.2429801933        8.9282899632       -7.4009721785  CLST      19              1.0000000000
        94        19  DCM       CL1             3.1092182266        9.4293622529       -5.3556695021  CLST      19              1.0000000000
        95        19  DCM       CL2             2.3792751633       10.2749844610       -8.0577263056  CLST      19              1.0000000000
        96        20  DCM       C               6.2752784166      -11.6869906617       -7.3119587630  CLST      20              1.0000000000
        97        20  DCM       H1              6.1167848747      -12.5714774004       -7.9650652594  CLST      20              1.0000000000
        98        20  DCM       H2              5.6918314100      -11.7758272804       -6.3712893613  CLST      20              1.0000000000
        99        20  DCM       CL1             8.0130111253      -11.5626706722       -6.9089453478  CLST      20              1.0000000000
       100        20  DCM       CL2             5.7503351961      -10.2175527983       -8.1847274723  CLST      20              1.0000000000
       101        21  DCM       C              -2.4296750154        1.8844016748        7.5501859705  CLST      21              1.0000000000
       102        21  DCM       H1             -2.5206692133        2.8100799562        8.1564645852  CLST      21              1.0000000000
       103        21  DCM       H2             -1.3677606835        1.6715930406        7.3071085034  CLST      21              1.0000000000
       104        21  DCM       CL1            -3.0984520614        0.5072718344        8.4702435650  CLST      21              1.0000000000
       105        21  DCM       CL2            -3.3441318400        2.0881074563        6.0300031026  CLST      21              1.0000000000
       106        22  DCM       C              -7.9520239776       -3.2975769022       -0.7982079344  CLST      22              1.0000000000
       107        22  DCM       H1             -8.6561074967       -4.1248478982       -0.5719527498  CLST      22              1.0000000000
       108        22  DCM       H2             -7.3455490040       -3.0390292852        0.0952452264  CLST      22              1.0000000000
       109        22  DCM       CL1            -6.8617892806       -3.8021755558       -2.1211196652  CLST      22              1.0000000000
       110        22  DCM       CL2            -8.8904312512       -1.8661624101       -1.3054867635  CLST      22              1.0000000000
       111        23  DCM       C              -2.8023410401        9.5739870573       -2.1615274303  CLST      23              1.0000000000
       112        23  DCM       H1             -2.7227300769        8.4962117853       -2.4175813723  CLST      23              1.0000000000
       113        23  DCM       H2             -2.7830725957       10.2038880791       -3.0750461936  CLST      23              1.0000000000
       114        23  DCM       CL1            -4.3429261696        9.8550291684       -1.3009441717  CLST      23              1.0000000000
       115        23  DCM       CL2            -1.4332940944       10.0292151700       -1.1053249002  CLST      23              1.0000000000
       116        24  DCM       C               0.6194556753        5.6768925606        0.2131066766  CLST      24              1.0000000000
       117        24  DCM       H1             -0.1958314385        6.4132711330        0.3651867099  CLST      24              1.0000000000
       118        24  DCM       H2              0.5903814921        5.2538940387       -0.8120488809  CLST      24              1.0000000000
       119        24  DCM       CL1             2.1896714935        6.4896863602        0.4691166474  CLST      24              1.0000000000
       120        24  DCM       CL2             0.4292484373        4.3465268357        1.3870193962  CLST      24              1.0000000000
       121        25  DCM       C              -2.1421979976       -6.8083693577        7.0620907694  CLST      25              1.0000000000
       122        25  DCM       H1             -2.3467952320       -7.6692585685        6.3902491003  CLST      25              1.0000000000
       123        25  DCM       H2             -1.0492132237       -6.6573671776        7.1852412016  CLST      25              1.0000000000
       124        25  DCM       CL1            -2.8638616676       -5.3318078664        6.3599268556  CLST      25              1.0000000000
       125        25  DCM       CL2            -2.8697882459       -7.1250225358        8.6615993199  CLST      25              1.0000000000
       126        26  DCM       C             -11.0444286690       -0.8089992390       -8.8871532046  CLST      26              1.0000000000
       127        26  DCM       H1            -11.9934015517       -0.2382884201       -8.8051650774  CLST      26              1.0000000000
       128        26  DCM       H2            -10.7878832838       -1.2883125677       -7.9185931964  CLST      26              1.0000000000
       129        26  DCM       CL1            -9.7304069062        0.3092942315       -9.3542962119  CLST      26              1.0000000000
       130        26  DCM       CL2           -11.2293686164       -2.0743795970      -10.1365225206  CLST      26              1.0000000000
       131        27  DCM       C               3.3296020863        2.7348860333        2.8462353124  CLST      27              1.0000000000
       132        27  DCM       H1              2.6000582101        3.4947228413        3.1966663682  CLST      27              1.0000000000
       133        27  DCM       H2              3.8791634867        2.2889951176        3.7012605973  CLST      27              1.0000000000
       134        27  DCM       CL1             2.4489902955        1.4424532857        1.9811188718  CLST      27              1.0000000000
       135        27  DCM       CL2             4.4982345057        3.5162112155        1.7428184537  CLST      27              1.0000000000
       136        28  DCM       C              -9.9202204465        4.6148743954        1.8340511288  CLST      28              1.0000000000
       137        28  DCM       H1            -10.8394984338        5.1581212288        2.1401818390  CLST      28              1.0000000000
       138        28  DCM       H2            -10.1508114289        3.8234824652        1.0897483571  CLST      28              1.0000000000
       139        28  DCM       CL1            -8.7734722154        5.7776150367        1.1128141038  CLST      28              1.0000000000
       140        28  DCM       CL2            -9.1819193778        3.8623124094        3.2757577973  CLST      28              1.0000000000
       141        29  DCM       C               3.0672582523      -10.7228311199        3.4442589295  CLST      29              1.0000000000
       142        29  DCM       H1              2.3324434002      -11.3794928274        2.9315818281  CLST      29              1.0000000000
       143        29  DCM       H2              3.4173067479      -11.1798095287        4.3939946387  CLST      29              1.0000000000
       144        29  DCM       CL1             2.2918375606       -9.1557172492        3.8055000083  CLST      29              1.0000000000
       145        29  DCM       CL2             4.4703728140      -10.4620955880        2.3682412107  CLST      29              1.0000000000
       146        30  DCM       C              -6.3898944387        8.6750052349        1.7780902573  CLST      30              1.0000000000
       147        30  DCM       H1             -5.6605544889        8.5538708682        0.9507358138  CLST      30              1.0000000000
       148        30  DCM       H2             -7.4301580917        8.5483489781        1.4109715607  CLST      30              1.0000000000
       149        30  DCM       CL1            -6.0546601278        7.4453604102        3.0294729935  CLST      30              1.0000000000
       150        30  DCM       CL2            -6.2107472002       10.3099737662        2.4749503501  CLST      30              1.0000000000
       151        31  DCM       C              -4.5651273857        8.1852025499       -5.7487684455  CLST      31              1.0000000000
       152        31  DCM       H1             -3.4643587964        8.2674645519       -5.6300218746  CLST      31              1.0000000000
       153        31  DCM       H2             -4.8278627500        7.4088251689       -6.4977844135  CLST      31              1.0000000000
       154        31  DCM       CL1            -5.2909698932        7.7481387506       -4.1748749979  CLST      31              1.0000000000
       155        31  DCM       CL2            -5.2134922553        9.7566163114       -6.2982745881  CLST      31              1.0000000000
       156        32  DCM       C               0.4350899112        1.6683458136       -9.2279350913  CLST      32              1.0000000000
       157        32  DCM       H1              0.6347402782        1.6131623625       -8.1377684731  CLST      32              1.0000000000
       158        32  DCM       H2              1.3379691034        1.3904714151       -9.8121294615  CLST      32              1.0000000000
       159        32  DCM       CL1            -0.8917946625        0.5405842220       -9.6294499691  CLST      32              1.0000000000
       160        32  DCM       CL2            -0.0389578221        3.3400157034       -9.6485307922  CLST      32              1.0000000000
       161        33  DCM       C               1.9433827245        6.4743782922       -7.8284343290  CLST      33              1.0000000000
       162        33  DCM       H1              1.3840100122        7.4020933484       -7.5838361518  CLST      33              1.0000000000
       163        33  DCM       H2              1.2558420873        5.6477646611       -8.1018421677  CLST      33              1.0000000000
       164        33  DCM       CL1             2.8968252929        5.9812242110       -6.4029091409  CLST      33              1.0000000000
       165        33  DCM       CL2             3.0341245758        6.7903221845       -9.2072042818  CLST      33              1.0000000000
       166        34  DCM       C              -6.5121809457       -7.2674600230       -0.7858415067  CLST      34              1.0000000000
       167        34  DCM       H1             -6.5934691701       -6.6099506278       -1.6748026465  CLST      34              1.0000000000
       168        34  DCM       H2             -5.4667393221       -7.6126939822       -0.6456247940  CLST      34              1.0000000000
       169        34  DCM       CL1            -7.0246449288       -6.3567526962        0.6615591213  CLST      34              1.0000000000
       170        34  DCM       CL2            -7.5769894898       -8.6821888281       -1.0113743920  CLST      34              1.0000000000
       171        35  DCM       C              -2.9314201612       -2.6588961234       10.4658550834  CLST      35              1.0000000000
       172        35  DCM       H1             -3.6524958510       -2.2833523739       11.2218595766  CLST      35              1.0000000000
       173        35  DCM       H2             -2.1467090037       -1.9024541252       10.2531278682  CLST      35              1.0000000000
       174        35  DCM       CL1            -2.1538102638       -4.1399750475       11.0925217222  CLST      35              1.0000000000
       175        35  DCM       CL2            -3.8082114764       -3.0334339624        8.9547391034  CLST      35              1.0000000000
       176        36  DCM       C              -7.4168406421       -4.1477026890        3.6071423818  CLST      36              1.0000000000
       177        36  DCM       H1             -7.9060784635       -3.8718378851        2.6492774908  CLST      36              1.0000000000
       178        36  DCM       H2             -7.6906567729       -3.4354775556        4.4140649883  CLST      36              1.0000000000
       179        36  DCM       CL1            -7.9392487279       -5.7927604967        4.0761886671  CLST      36              1.0000000000
       180        36  DCM       CL2            -5.6442572360       -4.1174467134        3.3816847771  CLST      36              1.0000000000
       181        37  DCM       C              -8.6342998099       -2.5895579282       -5.0835528295  CLST      37              1.0000000000
       182        37  DCM       H1             -7.9448543089       -2.1584875848       -4.3286652269  CLST      37              1.0000000000
       183        37  DCM       H2             -8.5555080487       -3.6970975435       -5.1078672296  CLST      37              1.0000000000
       184        37  DCM       CL1           -10.3109734633       -2.1352585705       -4.6712088006  CLST      37              1.0000000000
       185        37  DCM       CL2            -8.2151467471       -1.9319025638       -6.6896647442  CLST      37              1.0000000000
       186        38  DCM       C              -3.7905290973        4.1400342782        2.4885685877  CLST      38              1.0000000000
       187        38  DCM       H1             -3.3634044226        3.4308566667        3.2283684107  CLST      38              1.0000000000
       188        38  DCM       H2             -3.5937528515        5.1907912961        2.7846914568  CLST      38              1.0000000000
       189        38  DCM       CL1            -3.0525452560        3.8372123587        0.8939745082  CLST      38              1.0000000000
       190        38  DCM       CL2            -5.5528566655        3.8859582937        2.3883642507  CLST      38              1.0000000000
       191        39  DCM       C               1.3860131557       -1.8738948996        3.1149631300  CLST      39              1.0000000000
       192        39  DCM       H1              1.1326800886       -0.9273735477        3.6373400253  CLST      39              1.0000000000
       193        39  DCM       H2              2.4407502107       -1.8703990985        2.7711617801  CLST      39              1.0000000000
       194        39  DCM       CL1             1.1550447223       -3.2448299216        4.2344018468  CLST      39              1.0000000000
       195        39  DCM       CL2             0.3124815436       -2.0597806927        1.7022989383  CLST      39              1.0000000000
       196        40  DCM       C              -0.9372772887       -5.9879955127        2.7885222860  CLST      40              1.0000000000
       197        40  DCM       H1             -0.7712760221       -4.8965629671        2.6731753785  CLST      40              1.0000000000
       198        40  DCM       H2             -0.5503803670       -6.5436918828        1.9088207736  CLST      40              1.0000000000
       199        40  DCM       CL1            -0.0908947762       -6.5528499969        4.2554627715  CLST      40              1.0000000000
       200        40  DCM       CL2            -2.6895338963       -6.2954169529        2.9453017920  CLST      40              1.0000000000
       201        41  DCM       C               7.4993020386        3.2831477540       -7.5725789943  CLST      41              1.0000000000
       202        41  DCM       H1              6.6893419954        3.8823852728       -8.0399504299  CLST      41              1.0000000000
       203        41  DCM       H2              8.4949077149        3.5875131871       -7.9599499500  CLST      41              1.0000000000
       204        41  DCM       CL1             7.4611683494        3.5294866636       -5.8016410605  CLST      41              1.0000000000
       205        41  DCM       CL2             7.2334786552        1.5561381481       -7.9496065984  CLST      41              1.0000000000
       206        42  DCM       C              -2.5410468758        0.3896473840        1.8691837585  CLST      42              1.0000000000
       207        42  DCM       H1             -2.3016694312       -0.6850938774        1.7325602724  CLST      42              1.0000000000
       208        42  DCM       H2             -2.6781785884        0.8922686691        0.8896571374  CLST      42              1.0000000000
       209        42  DCM       CL1            -1.2025972592        1.1828086907        2.7446461445  CLST      42              1.0000000000
       210        42  DCM       CL2            -4.0495017102        0.5318853587        2.8146734784  CLST      42              1.0000000000
       211        43  DCM       C               7.4904561270      -12.4136148845      -10.8954316037  CLST      43              1.0000000000
       212        43  DCM       H1              7.7027510848      -11.4987095969      -10.3023323337  CLST      43              1.0000000000
       213        43  DCM       H2              7.9873253171      -12.3717106579      -11.8877879186  CLST      43              1.0000000000
       214        43  DCM       CL1             8.0958994643      -13.8386163967      -10.0015476426  CLST      43              1.0000000000
       215        43  DCM       CL2             5.7243283456      -12.5554282697      -11.1351472740  CLST      43              1.0000000000
       216        44  DCM       C               0.3345442973        3.8362675995        5.8456531737  CLST      44              1.0000000000
       217        44  DCM       H1              1.1794492772        4.5539070980        5.8032125402  CLST      44              1.0000000000
       218        44  DCM       H2             -0.1177206755        3.8123378913        6.8576914107  CLST      44              1.0000000000
       219        44  DCM       CL1            -0.9149429283        4.3307304591        4.6702243041  CLST      44              1.0000000000
       220        44  DCM       CL2             0.9412395496        2.2060947531        5.4454171241  CLST      44              1.0000000000
       221        45  DCM       C             -10.9377303358       -6.3920370470      -10.4527427229  CLST      45              1.0000000000
       222        45  DCM       H1            -10.7874950556       -6.8701805173      -11.4431401448  CLST      45              1.0000000000
       223        45  DCM       H2            -10.1370554881       -5.6523061078      -10.2416818888  CLST      45              1.0000000000
       224        45  DCM       CL1           -12.5183661030       -5.5579599343      -10.4439540969  CLST      45              1.0000000000
       225        45  DCM       CL2           -10.9140465507       -7.6513496743       -9.1844533532  CLST      45              1.0000000000
       226        46  DCM       C              -1.7398253626       -9.7660353051        3.4218768361  CLST      46              1.0000000000
       227        46  DCM       H1             -1.1003301385       -9.1129767938        2.7916896245  CLST      46              1.0000000000
       228        46  DCM       H2             -2.7024808067       -9.2698524918        3.6651954979  CLST      46              1.0000000000
       229        46  DCM       CL1            -2.0733689684      -11.2791608353        2.5318842486  CLST      46              1.0000000000
       230        46  DCM       CL2            -0.8812353799      -10.1313465725        4.9457865612  CLST      46              1.0000000000
       231        47  DCM       C               0.6053600202        3.2827776706       -4.3850733653  CLST      47              1.0000000000
       232        47  DCM       H1              1.4315269423        3.9330508496       -4.0301361432  CLST      47              1.0000000000
       233        47  DCM       H2             -0.3143758865        3.4391708724       -3.7834745049  CLST      47              1.0000000000
       234        47  DCM       CL1             1.1101279895        1.5734796383       -4.2565195231  CLST      47              1.0000000000
       235        47  DCM       CL2             0.2530566617        3.6757215967       -6.0882205346  CLST      47              1.0000000000
       236        48  DCM       C               4.2211980834        4.2078593951       -1.8847975758  CLST      48              1.0000000000
       237        48  DCM       H1              5.1151911586        3.8117706020       -1.3580366459  CLST      48              1.0000000000
       238        48  DCM       H2              4.0408613808        5.2681573355       -1.6100595014  CLST      48              1.0000000000
       239        48  DCM       CL1             4.4854851841        4.0946865696       -3.6495728058  CLST      48              1.0000000000
       240        48  DCM       CL2             2.7941383518        3.2338016704       -1.4251047300  CLST      48              1.0000000000
       241        49  DCM       C              10.0284949252      -11.1063471810       -2.4639817342  CLST      49              1.0000000000
       242        49  DCM       H1              9.5880686077      -11.1566447191       -3.4824616770  CLST      49              1.0000000000
       243        49  DCM       H2              9.2875369553      -10.7312852619       -1.7266866755  CLST      49              1.0000000000
       244        49  DCM       CL1            10.5558974726      -12.7431595563       -1.9760628002  CLST      49              1.0000000000
       245        49  DCM       CL2            11.4321719674       -9.9991383903       -2.4916508591  CLST      49              1.0000000000
       246        50  DCM       C              -7.3775152088        1.0285827471        1.3466008954  CLST      50              1.0000000000
       247        50  DCM       H1             -6.3168601873        0.9846181939        1.0243331626  CLST      50              1.0000000000
       248        50  DCM       H2             -7.5152503003        1.7722318261        2.1566738949  CLST      50              1.0000000000
       249        50  DCM       CL1            -7.8740004933       -0.5774085381        1.9567811929  CLST      50              1.0000000000
       250        50  DCM       CL2            -8.3870992801        1.5051560240       -0.0484963763  CLST      50              1.0000000000
       251        51  DCM       C             -10.8887649958      -12.3106379782       -7.2423058394  CLST      51              1.0000000000
       252        51  DCM       H1            -11.4612338462      -13.0368751529       -6.6280143804  CLST      51              1.0000000000
       253        51  DCM       H2             -9.8266836505      -12.2667020073       -6.9225392732  CLST      51              1.0000000000
       254        51  DCM       CL1           -10.9519656575      -12.8145517182       -8.9556134057  CLST      51              1.0000000000
       255        51  DCM       CL2           -11.6207051764      -10.6898392208       -7.0593139317  CLST      51              1.0000000000
       256        52  DCM       C              -3.2013828349        4.7741055098       -3.3273612676  CLST      52              1.0000000000
       257        52  DCM       H1             -3.1950968051        3.6713133158       -3.1982108087  CLST      52              1.0000000000
       258        52  DCM       H2             -4.2169875731        5.1900315976       -3.1708911302  CLST      52              1.0000000000
       259        52  DCM       CL1            -2.6757183625        5.1795413886       -4.9822253024  CLST      52              1.0000000000
       260        52  DCM       CL2            -2.0842131005        5.5110849013       -2.1465906737  CLST      52              1.0000000000
       261        53  DCM       C              -6.5697441832       -0.8139559547        9.7201757510  CLST      53              1.0000000000
       262        53  DCM       H1             -6.2725126774       -1.5014030429       10.5383005844  CLST      53              1.0000000000
       263        53  DCM       H2             -6.0172935636       -1.0458207234        8.7855873228  CLST      53              1.0000000000
       264        53  DCM       CL1            -8.3225050045       -0.9873507954        9.4210324158  CLST      53              1.0000000000
       265        53  DCM       CL2            -6.2049271015        0.8625336309       10.2145440891  CLST      53              1.0000000000
       266        54  DCM       C              -2.3705733252       -3.8399389200        0.0611266676  CLST      54              1.0000000000
       267        54  DCM       H1             -2.2687941283       -3.6000588457        1.1400711923  CLST      54              1.0000000000
       268        54  DCM       H2             -2.4899961439       -2.9174894709       -0.5428818705  CLST      54              1.0000000000
       269        54  DCM       CL1            -0.9056823127       -4.6992753452       -0.4933396601  CLST      54              1.0000000000
       270        54  DCM       CL2            -3.8100424300       -4.8729553892       -0.1666748118  CLST      54              1.0000000000
       271        55  DCM       C               7.2621025392       -0.5404624444        4.3640379509  CLST      55              1.0000000000
       272        55  DCM       H1              6.6534179085       -1.4396323534        4.1318474563  CLST      55              1.0000000000
       273        55  DCM       H2              8.3244839877       -0.6942106608        4.0816384419  CLST      55              1.0000000000
       274        55  DCM       CL1             6.6114527273        0.8528275788        3.4518506419  CLST      55              1.0000000000
       275        55  DCM       CL2             7.1672052706       -0.2147465653        6.1194926178  CLST      55              1.0000000000
       276        56  DCM       C               4.8203932895        0.3883117209       -3.1076858462  CLST      56              1.0000000000
       277        56  DCM       H1              3.9787888860        1.0901370586       -3.2929612082  CLST      56              1.0000000000
       278        56  DCM       H2              4.4481801416       -0.6392267168       -2.9174202470  CLST      56              1.0000000000
       279        56  DCM       CL1             5.8856699475        0.3670839298       -4.5417519139  CLST      56              1.0000000000
       280        56  DCM       CL2             5.7432825006        0.9503132626       -1.6841502791  CLST      56              1.0000000000
       281        57  DCM       C              -6.3200204122       -5.3678797951        7.3657901659  CLST      57              1.0000000000
       282        57  DCM       H1             -6.0144527372       -5.5219662260        6.3101824201  CLST      57              1.0000000000
       283        57  DCM       H2             -5.4371618930       -5.3835121276        8.0387924077  CLST      57              1.0000000000
       284        57  DCM       CL1            -7.4458887291       -6.6674777416        7.8510824855  CLST      57              1.0000000000
       285        57  DCM       CL2            -7.1381062264       -3.7877833824        7.5020341388  CLST      57              1.0000000000
       286        58  DCM       C              -5.3201405897       -9.2059184973        6.5199130022  CLST      58              1.0000000000
       287        58  DCM       H1             -5.2325621759       -8.7057813599        7.5076048182  CLST      58              1.0000000000
       288        58  DCM       H2             -6.3303736319       -9.6453334823        6.3809616327  CLST      58              1.0000000000
       289        58  DCM       CL1            -4.1027491434      -10.5085128788        6.4245105083  CLST      58              1.0000000000
       290        58  DCM       CL2            -5.0251142376       -8.0061446121        5.2294454679  CLST      58              1.0000000000
       291        59  DCM       C              -6.2865103979        5.0398018311        5.7967040294  CLST      59              1.0000000000
       292        59  DCM       H1             -6.4246830978        4.1294974381        6.4143612424  CLST      59              1.0000000000
       293        59  DCM       H2             -6.7180964368        4.9055906508        4.7832950005  CLST      59              1.0000000000
       294        59  DCM       CL1            -7.1026785041        6.4095176520        6.5915936109  CLST      59              1.0000000000
       295        59  DCM       CL2            -4.5408531779        5.3813055830        5.6573248623  CLST      59              1.0000000000
       296        60  DCM       C              -9.5898235927        7.5077582548        4.4029528447  CLST      60              1.0000000000
       297        60  DCM       H1             -9.2259325300        8.1013832868        5.2679123822  CLST      60              1.0000000000
       298        60  DCM       H2             -8.8226109750        6.7766474652        4.0730300979  CLST      60              1.0000000000
       299        60  DCM       CL1            -9.9622816324        8.6118538799        3.0479297044  CLST      60              1.0000000000
       300        60  DCM       CL2           -11.0648206431        6.6233024505        4.8869073840  CLST      60              1.0000000000
       301        61  DCM       C              -4.7680485889      -12.4832220226        0.3032149235  CLST      61              1.0000000000
       302        61  DCM       H1             -4.1609107772      -11.5573144048        0.3754359494  CLST      61              1.0000000000
       303        61  DCM       H2             -4.8681915596      -12.9705487105        1.2962165037  CLST      61              1.0000000000
       304        61  DCM       CL1            -6.3943267083      -12.0683061774       -0.3107074605  CLST      61              1.0000000000
       305        61  DCM       CL2            -3.9641922475      -13.6121998126       -0.8243824334  CLST      61              1.0000000000
       306        62  DCM       C             -10.3941403082       -6.5240213379       -1.7438422746  CLST      62              1.0000000000
       307        62  DCM       H1            -10.2590715893       -7.4325485809       -2.3680329943  CLST      62              1.0000000000
       308        62  DCM       H2             -9.5732509780       -6.4232352403       -1.0039245026  CLST      62              1.0000000000
       309        62  DCM       CL1           -10.4014409489       -5.0880477613       -2.8048694975  CLST      62              1.0000000000
       310        62  DCM       CL2           -11.9502405942       -6.6365264049       -0.8736339133  CLST      62              1.0000000000
       311        63  DCM       C              -5.1815439741        5.7207103597        9.6688161708  CLST      63              1.0000000000
       312        63  DCM       H1             -4.4287432226        5.8847732538       10.4676328346  CLST      63              1.0000000000
       313        63  DCM       H2             -5.0268375805        6.4232469013        8.8230451047  CLST      63              1.0000000000
       314        63  DCM       CL1            -6.8103043566        5.9823103121       10.3532081501  CLST      63              1.0000000000
       315        63  DCM       CL2            -5.0356284273        4.0445451281        9.0690724908  CLST      63              1.0000000000
       316        64  DCM       C              -6.0967990776        4.4304852466       -1.0244105146  CLST      64              1.0000000000
       317        64  DCM       H1             -5.1792295849        3.8088214178       -1.0322935047  CLST      64              1.0000000000
       318        64  DCM       H2             -6.7870742548        4.1119589387       -0.2164807122  CLST      64              1.0000000000
       319        64  DCM       CL1            -5.6315466227        6.1355657788       -0.7668349942  CLST      64              1.0000000000
       320        64  DCM       CL2            -6.9256026394        4.2563759583       -2.5936447332  CLST      64              1.0000000000
       321        65  DCM       C              -4.6359745578       -0.6910937453       -1.5676551121  CLST      65              1.0000000000
       322        65  DCM       H1             -3.6913873557       -1.0852315461       -1.9975760676  CLST      65              1.0000000000
       323        65  DCM       H2             -5.4983307260       -0.9267789877       -2.2247890797  CLST      65              1.0000000000
       324        65  DCM       CL1            -4.9139655542       -1.4412085634        0.0275681831  CLST      65              1.0000000000
       325        65  DCM       CL2            -4.4989410863        1.0809134796       -1.3878377791  CLST      65              1.0000000000
       326        66  DCM       C              10.5390123280        9.4082883387        8.8869003992  CLST      66              1.0000000000
       327        66  DCM       H1             10.8318104370       10.0138285140        8.0031235897  CLST      66              1.0000000000
       328        66  DCM       H2             11.3816014642        9.3130691071        9.6041236802  CLST      66              1.0000000000
       329        66  DCM       CL1             9.1645666391       10.2048912137        9.7075159523  CLST      66              1.0000000000
       330        66  DCM       CL2            10.0551165818        7.7765420867        8.3388505671  CLST      66              1.0000000000
       331        67  DCM       C              -4.8528078409      -11.7751090084       -4.1389287881  CLST      67              1.0000000000
       332        67  DCM       H1             -3.8762709797      -12.0660252398       -3.6973126694  CLST      67              1.0000000000
       333        67  DCM       H2             -4.7582777711      -11.5775128764       -5.2276261538  CLST      67              1.0000000000
       334        67  DCM       CL1            -6.0225694064      -13.1035820899       -3.8900569753  CLST      67              1.0000000000
       335        67  DCM       CL2            -5.4367991670      -10.2925541616       -3.3307341242  CLST      67              1.0000000000
       336        68  DCM       C              -7.2733943064      -11.4426229922       -9.0156040958  CLST      68              1.0000000000
       337        68  DCM       H1             -6.3702329443      -11.0550986352       -9.5320701114  CLST      68              1.0000000000
       338        68  DCM       H2             -7.8683381757      -12.0982224686       -9.6855486566  CLST      68              1.0000000000
       339        68  DCM       CL1            -6.7681638781      -12.3809933284       -7.5805708549  CLST      68              1.0000000000
       340        68  DCM       CL2            -8.2859158931      -10.0616089376       -8.5094805019  CLST      68              1.0000000000
       341        69  DCM       C              -6.5358501709        1.5515704809       -4.7001243113  CLST      69              1.0000000000
       342        69  DCM       H1             -7.2149890953        2.2853678209       -5.1810218137  CLST      69              1.0000000000
       343        69  DCM       H2             -5.6991186548        2.0612009078       -4.1775185800  CLST      69              1.0000000000
       344        69  DCM       CL1            -7.4781062565        0.6028832965       -3.5180753079  CLST      69              1.0000000000
       345        69  DCM       CL2            -5.8619007187        0.4739600634       -5.9527300159  CLST      69              1.0000000000
       346        70  DCM       C               0.1060671397        0.6424328691       -0.8693555100  CLST      70              1.0000000000
       347        70  DCM       H1              1.1097006176        0.7195327740       -1.3382290413  CLST      70              1.0000000000
       348        70  DCM       H2              0.1927601899        0.5175984365        0.2294307256  CLST      70              1.0000000000
       349        70  DCM       CL1            -0.7507344631       -0.7679137625       -1.5538711298  CLST      70              1.0000000000
       350        70  DCM       CL2            -0.8204623517        2.1303853117       -1.2121490403  CLST      70              1.0000000000
       351        71  DCM       C              -0.2334801970       11.2727088752       -5.7035296596  CLST      71              1.0000000000
       352        71  DCM       H1              0.2132743719       10.3215354976       -6.0601748600  CLST      71              1.0000000000
       353        71  DCM       H2              0.0787275890       12.1248012885       -6.3441650260  CLST      71              1.0000000000
       354        71  DCM       CL1             0.2982081465       11.5798017035       -4.0251697089  CLST      71              1.0000000000
       355        71  DCM       CL2            -2.0114188409       11.1249399802       -5.7546101476  CLST      71              1.0000000000
       356        72  DCM       C             -10.6490123672       -9.5528898158        0.8611277440  CLST      72              1.0000000000
       357        72  DCM       H1            -11.7049992697       -9.7019942987        1.1707391773  CLST      72              1.0000000000
       358        72  DCM       H2            -10.5885801187       -9.1852527823       -0.1837812398  CLST      72              1.0000000000
       359        72  DCM       CL1            -9.8873852201       -8.3484255111        1.9407537229  CLST      72              1.0000000000
       360        72  DCM       CL2            -9.7804481262      -11.1110249557        0.9727510238  CLST      72              1.0000000000
       361        73  DCM       C              -4.7799993741       -3.2009244086       -6.2007743480  CLST      73              1.0000000000
       362        73  DCM       H1             -3.8004420072       -3.4963126461       -6.6256925902  CLST      73              1.0000000000
       363        73  DCM       H2             -5.2538069858       -2.4019095619       -6.8086980557  CLST      73              1.0000000000
       364        73  DCM       CL1            -5.8477226408       -4.6337553625       -6.1775503067  CLST      73              1.0000000000
       365        73  DCM       CL2            -4.5231881530       -2.5988191515       -4.5390238879  CLST      73              1.0000000000
       366        74  DCM       C              -2.5153395602       -1.5974548890        5.4316156310  CLST      74              1.0000000000
       367        74  DCM       H1             -2.7868769090       -2.2177779928        6.3102406516  CLST      74              1.0000000000
       368        74  DCM       H2             -3.2693031396       -0.8038337479        5.2553274566  CLST      74              1.0000000000
       369        74  DCM       CL1            -0.9360317542       -0.8209467934        5.7253625115  CLST      74              1.0000000000
       370        74  DCM       CL2            -2.4205631699       -2.6411611686        3.9857813152  CLST      74              1.0000000000
       371        75  DCM       C              -6.6621111029       -4.6602589547       11.3282952775  CLST      75              1.0000000000
       372        75  DCM       H1             -6.8745216879       -4.0884781633       10.4009459208  CLST      75              1.0000000000
       373        75  DCM       H2             -7.5822706041       -5.1454060671       11.7175964989  CLST      75              1.0000000000
       374        75  DCM       CL1            -5.4465048243       -5.9198159422       10.9705118014  CLST      75              1.0000000000
       375        75  DCM       CL2            -6.0235850124       -3.5433539190       12.5686051426  CLST      75              1.0000000000
       376        76  DCM       C               4.8243867455       -1.2528783048        1.1625046070  CLST      76              1.0000000000
       377        76  DCM       H1              4.4522387463       -0.6372903565        2.0076230942  CLST      76              1.0000000000
       378        76  DCM       H2              5.6839269650       -0.7606343125        0.6616129789  CLST      76              1.0000000000
       379        76  DCM       CL1             5.3558705610       -2.8355326320        1.7962795595  CLST      76              1.0000000000
       380        76  DCM       CL2             3.5042448692       -1.4810114112       -0.0230580704  CLST      76              1.0000000000
       381        77  DCM       C             -10.5511885281        4.9663134145       -6.3960252289  CLST      77              1.0000000000
       382        77  DCM       H1             -9.9233211224        5.1891199088       -7.2841672270  CLST      77              1.0000000000
       383        77  DCM       H2            -11.1700753479        4.0593734433       -6.5625533774  CLST      77              1.0000000000
       384        77  DCM       CL1            -9.4874240906        4.6967838642       -4.9853726992  CLST      77              1.0000000000
       385        77  DCM       CL2           -11.6277060061        6.3583072260       -6.0831949759  CLST      77              1.0000000000
       386        78  DCM       C               6.2905494622        7.1108804190       -5.3669281816  CLST      78              1.0000000000
       387        78  DCM       H1              5.2723771895        6.9209344767       -4.9672248403  CLST      78              1.0000000000
       388        78  DCM       H2              7.0392737280        6.4528226371       -4.8769192551  CLST      78              1.0000000000
       389        78  DCM       CL1             6.3011286322        6.7946281062       -7.1269798369  CLST      78              1.0000000000
       390        78  DCM       CL2             6.7264252896        8.8163994716       -5.0582217503  CLST      78              1.0000000000
       391        79  DCM       C               1.7156176703       -8.4956980335        0.3342398266  CLST      79              1.0000000000
       392        79  DCM       H1              2.8181760798       -8.6291063685        0.3390114298  CLST      79              1.0000000000
       393        79  DCM       H2              1.3899827780       -7.8431236876        1.1705020030  CLST      79              1.0000000000
       394        79  DCM       CL1             1.2256206644       -7.7464435772       -1.2130633243  CLST      79              1.0000000000
       395        79  DCM       CL2             0.9355851059      -10.0930920174        0.5140203648  CLST      79              1.0000000000
       396        80  DCM       C              -1.6192270728        6.3891315995       -8.3836032748  CLST      80              1.0000000000
       397        80  DCM       H1             -1.1789904689        5.8288495355       -7.5326646035  CLST      80              1.0000000000
       398        80  DCM       H2             -1.0617798410        6.1967601466       -9.3246141486  CLST      80              1.0000000000
       399        80  DCM       CL1            -1.5646270344        8.1386179038       -8.0213581412  CLST      80              1.0000000000
       400        80  DCM       CL2            -3.3106968710        5.8621420612       -8.6014562346  CLST      80              1.0000000000
       401        81  DCM       C             -11.1132327815        6.1146423951        9.7718859832  CLST      81              1.0000000000
       402        81  DCM       H1            -12.1175250249        6.5864942954        9.7283725121  CLST      81              1.0000000000
       403        81  DCM       H2            -11.1887466445        5.0084192848        9.7130468582  CLST      81              1.0000000000
       404        81  DCM       CL1           -10.1364020688        6.7033832074        8.3980638184  CLST      81              1.0000000000
       405        81  DCM       CL2           -10.3226012715        6.5655524288       11.3100467803  CLST      81              1.0000000000
       406        82  DCM       C              -2.2763488795        0.8934624281       -6.2103692323  CLST      82              1.0000000000
       407        82  DCM       H1             -1.1830557197        0.8532859605       -6.4000532214  CLST      82              1.0000000000
       408        82  DCM       H2             -2.7779481903       -0.0306509793       -6.5687802685  CLST      82              1.0000000000
       409        82  DCM       CL1            -2.5553882214        1.0643461182       -4.4528697509  CLST      82              1.0000000000
       410        82  DCM       CL2            -2.9650840865        2.2996856229       -7.0744622808  CLST      82              1.0000000000
       411        83  DCM       C              -8.6970474960       -7.2039565661       -5.7802542525  CLST      83              1.0000000000
       412        83  DCM       H1             -8.2889809471       -8.0158668364       -6.4168713936  CLST      83              1.0000000000
       413        83  DCM       H2             -8.6263465766       -6.2231584968       -6.2928748017  CLST      83              1.0000000000
       414        83  DCM       CL1           -10.4104938867       -7.5607623312       -5.4202411434  CLST      83              1.0000000000
       415        83  DCM       CL2            -7.7567261415       -7.1262440093       -4.2648107773  CLST      83              1.0000000000
       416        84  DCM       C             -10.2672673406       11.1881823848        5.7827498859  CLST      84              1.0000000000
       417        84  DCM       H1            -10.4590161899       12.2192500917        6.1476825377  CLST      84              1.0000000000
       418        84  DCM       H2            -10.8333946226       10.9813843015        4.8498942101  CLST      84              1.0000000000
       419        84  DCM       CL1            -8.5199356689       11.0052712287        5.4537738881  CLST      84              1.0000000000
       420        84  DCM       CL2           -10.7747105302       10.0230630977        7.0398654500  CLST      84              1.0000000000
       421        85  DCM       C               5.2585435710       -7.9361898149        5.5336864105  CLST      85              1.0000000000
       422        85  DCM       H1              5.2212255206       -8.1959432145        4.4546900336  CLST      85              1.0000000000
       423        85  DCM       H2              6.2594289521       -7.5488232913        5.8181164244  CLST      85              1.0000000000
       424        85  DCM       CL1             4.0301635584       -6.6828351924        5.8756307128  CLST      85              1.0000000000
       425        85  DCM       CL2             4.9093376700       -9.4040999686        6.4918717956  CLST      85              1.0000000000
       426        86  DCM       C              -2.4607110156        8.5377727281        2.3376739615  CLST      86              1.0000000000
       427        86  DCM       H1             -3.2906433464        9.2718411456        2.4058844611  CLST      86              1.0000000000
       428        86  DCM       H2             -1.4903129897        9.0500770791        2.1647827794  CLST      86              1.0000000000
       429        86  DCM       CL1            -2.3707531861        7.6175291989        3.8660880660  CLST      86              1.0000000000
       430        86  DCM       CL2            -2.7818942409        7.4203376803        0.9833628305  CLST      86              1.0000000000
       431        87  DCM       C              -6.7011829863        0.4611769710        6.2784778281  CLST      87              1.0000000000
       432        87  DCM       H1             -7.7091537419        0.2777794830        6.7072209748  CLST      87              1.0000000000
       433        87  DCM       H2             -5.9994254616        0.8458401705        7.0487374316  CLST      87              1.0000000000
       434        87  DCM       CL1            -6.0612265832       -1.0681950781        5.6165886623  CLST      87              1.0000000000
       435        87  DCM       CL2            -6.8391578768        1.6644572200        4.9696942899  CLST      87              1.0000000000
       436        88  DCM       C             -11.0889951627        1.3254498675       -4.4572082693  CLST      88              1.0000000000
       437        88  DCM       H1            -10.6365961672        0.6699792549       -3.6827825240  CLST      88              1.0000000000
       438        88  DCM       H2            -11.1594815644        2.3740222004       -4.0995602550  CLST      88              1.0000000000
       439        88  DCM       CL1           -10.0726574971        1.2748467815       -5.9256579999  CLST      88              1.0000000000
       440        88  DCM       CL2           -12.7288644680        0.7289328604       -4.8439624028  CLST      88              1.0000000000
       441        89  DCM       C              -8.6991749628        7.3241741036       -2.3755989886  CLST      89              1.0000000000
       442        89  DCM       H1             -8.2106161191        7.0938754561       -3.3457428649  CLST      89              1.0000000000
       443        89  DCM       H2             -8.5384635738        6.5024673520       -1.6489974536  CLST      89              1.0000000000
       444        89  DCM       CL1            -8.0041314812        8.8304488157       -1.7098986396  CLST      89              1.0000000000
       445        89  DCM       CL2           -10.4557978223        7.5229722728       -2.6328658722  CLST      89              1.0000000000
       446        90  DCM       C             -10.0774733355      -10.2670327215      -11.7295697273  CLST      90              1.0000000000
       447        90  DCM       H1            -10.3458401451      -10.2906707350      -10.6519235328  CLST      90              1.0000000000
       448        90  DCM       H2            -10.9566098913       -9.9970866320      -12.3519931471  CLST      90              1.0000000000
       449        90  DCM       CL1            -9.4910915823      -11.8829246617      -12.2192338442  CLST      90              1.0000000000
       450        90  DCM       CL2            -8.7871848848       -9.0561897713      -11.9855733287  CLST      90              1.0000000000
       451        91  DCM       C              -1.4910271703       -4.5850215465       -8.7913414245  CLST      91              1.0000000000
       452        91  DCM       H1             -0.8619046333       -5.1333475203       -8.0582874235  CLST      91              1.0000000000
       453        91  DCM       H2             -1.0532158464       -4.6355711566       -9.8107323606  CLST      91              1.0000000000
       454        91  DCM       CL1            -3.1201139306       -5.3217797908       -8.8231192963  CLST      91              1.0000000000
       455        91  DCM       CL2            -1.6045452900       -2.8707566904       -8.2928145739  CLST      91              1.0000000000
       456        92  DCM       C               3.7539252534        2.3723291601       -6.8798475703  CLST      92              1.0000000000
       457        92  DCM       H1              3.0692555755        2.9136858341       -6.1953929466  CLST      92              1.0000000000
       458        92  DCM       H2              4.7929277289        2.3931873575       -6.4917653489  CLST      92              1.0000000000
       459        92  DCM       CL1             3.2206667305        0.6726181455       -7.0216856284  CLST      92              1.0000000000
       460        92  DCM       CL2             3.7121718494        3.1543508945       -8.4859338313  CLST      92              1.0000000000
       461        93  DCM       C              -8.3392821341        9.5119500550       10.0594382890  CLST      93              1.0000000000
       462        93  DCM       H1             -8.0243389367        8.7241541989       10.7759127186  CLST      93              1.0000000000
       463        93  DCM       H2             -9.4290925231        9.4517214248        9.8540100365  CLST      93              1.0000000000
       464        93  DCM       CL1            -7.9597702092       11.1154360722       10.7509152148  CLST      93              1.0000000000
       465        93  DCM       CL2            -7.4482856670        9.2933140101        8.5277553695  CLST      93              1.0000000000
       466        94  DCM       C               3.6959502903       -1.7352254474        6.3487911591  CLST      94              1.0000000000
       467        94  DCM       H1              4.2867406905       -1.4783729549        7.2537074160  CLST      94              1.0000000000
       468        94  DCM       H2              2.6749309445       -2.0754088754        6.6223730608  CLST      94              1.0000000000
       469        94  DCM       CL1             3.5686151144       -0.2885382324        5.3072474427  CLST      94              1.0000000000
       470        94  DCM       CL2             4.5295770814       -3.0443821408        5.4619396608  CLST      94              1.0000000000
       471        95  DCM       C              -6.5695275096       -9.6450866017        2.4876073002  CLST      95              1.0000000000
       472        95  DCM       H1             -7.2415836912       -9.8695430170        1.6347056117  CLST      95              1.0000000000
       473        95  DCM       H2             -6.9930643036       -8.8404695493        3.1254654528  CLST      95              1.0000000000
       474        95  DCM       CL1            -6.3603652575      -11.1264360862        3.4640144984  CLST      95              1.0000000000
       475        95  DCM       CL2            -4.9884968805       -9.1151982704        1.8503556327  CLST      95              1.0000000000
       476        96  DCM       C              -6.2792526227       -6.7549135907      -10.4072841527  CLST      96              1.0000000000
       477        96  DCM       H1             -6.9200311679       -6.8283907228      -11.3108809289  CLST      96              1.0000000000
       478        96  DCM       H2             -5.5742593179       -5.9014540938      -10.4899789529  CLST      96              1.0000000000
       479        96  DCM       CL1            -5.3453560708       -8.2679052697      -10.2290051923  CLST      96              1.0000000000
       480        96  DCM       CL2            -7.3208167986       -6.5117235098       -8.9762874432  CLST      96              1.0000000000
       481        97  DCM       C              -0.0568392091       -3.7698092555        7.8325748011  CLST      97              1.0000000000
       482        97  DCM       H1             -0.7793917014       -4.3302005866        8.4627412211  CLST      97              1.0000000000
       483        97  DCM       H2             -0.5034979230       -3.5124686371        6.8493244718  CLST      97              1.0000000000
       484        97  DCM       CL1             0.4177535908       -2.2677545483        8.6775565322  CLST      97              1.0000000000
       485        97  DCM       CL2             1.3837761879       -4.7882951428        7.5573284526  CLST      97              1.0000000000
       486        98  DCM       C              -6.7625625881        4.6341634414       -7.7811974368  CLST      98              1.0000000000
       487        98  DCM       H1             -5.9976160803        4.7148134813       -8.5814193727  CLST      98              1.0000000000
       488        98  DCM       H2             -7.4831982569        5.4755990389       -7.8314394876  CLST      98              1.0000000000
       489        98  DCM       CL1            -5.9537922875        4.6701843148       -6.1892502668  CLST      98              1.0000000000
       490        98  DCM       CL2            -7.6505571142        3.0977441074       -7.9830129530  CLST      98              1.0000000000
