* CHARMM CGENFF SD/ABNR BEFORE MLPOT (MM ONLY)
*  DATE:     6/28/26      1:58:51      CREATED BY USER: boittier
*
       475  EXT
         1         1  DCM       C             -12.5327232915       12.0704862954       12.3493122986  CLST      1               1.0000000000
         2         1  DCM       H1            -12.1980754715       11.0145143153       12.4283484645  CLST      1               1.0000000000
         3         1  DCM       H2            -12.5880714882       12.5500224867       13.3494593243  CLST      1               1.0000000000
         4         1  DCM       CL1           -11.3706914432       12.9743614314       11.3346485400  CLST      1               1.0000000000
         5         1  DCM       CL2           -14.1541311980       12.1101173886       11.5979050458  CLST      1               1.0000000000
         6         2  DCM       C             -10.0108394282       -8.7735806693       -5.8535761336  CLST      2               1.0000000000
         7         2  DCM       H1            -10.6849682031       -8.4737813419       -6.6834414723  CLST      2               1.0000000000
         8         2  DCM       H2            -10.1197052612       -8.0938655258       -4.9826934653  CLST      2               1.0000000000
         9         2  DCM       CL1           -10.4166691197      -10.4399416004       -5.3482081563  CLST      2               1.0000000000
        10         2  DCM       CL2            -8.3206210537       -8.7146428589       -6.4307572950  CLST      2               1.0000000000
        11         3  DCM       C               5.0964335336        3.6318974327        1.9634476379  CLST      3               1.0000000000
        12         3  DCM       H1              5.1908946987        4.3833876068        1.1502342621  CLST      3               1.0000000000
        13         3  DCM       H2              4.0646404122        3.6139508300        2.3746009781  CLST      3               1.0000000000
        14         3  DCM       CL1             5.4900057845        2.0162562879        1.3098519075  CLST      3               1.0000000000
        15         3  DCM       CL2             6.2351316336        4.0471873068        3.2754565615  CLST      3               1.0000000000
        16         4  DCM       C              -4.4997352309       -3.5804132004       -0.3913496128  CLST      4               1.0000000000
        17         4  DCM       H1             -3.3936419236       -3.5737533925       -0.2930198869  CLST      4               1.0000000000
        18         4  DCM       H2             -4.9607266169       -4.2724743806        0.3424434949  CLST      4               1.0000000000
        19         4  DCM       CL1            -5.1239858409       -1.9311515018       -0.1037685261  CLST      4               1.0000000000
        20         4  DCM       CL2            -4.9350631573       -4.1088283774       -2.0407700432  CLST      4               1.0000000000
        21         5  DCM       C             -12.3201744685       -4.7621035719        9.3951255858  CLST      5               1.0000000000
        22         5  DCM       H1            -13.3631168029       -5.1438731073        9.3949271996  CLST      5               1.0000000000
        23         5  DCM       H2            -11.6704958983       -5.3811721346        8.7427822189  CLST      5               1.0000000000
        24         5  DCM       CL1           -12.3126903854       -3.0811162944        8.7883867085  CLST      5               1.0000000000
        25         5  DCM       CL2           -11.6811800474       -4.8114518399       11.0638311579  CLST      5               1.0000000000
        26         6  DCM       C               3.5182691317       -8.3366817975       -9.6409246900  CLST      6               1.0000000000
        27         6  DCM       H1              3.9922204507       -9.3042759672       -9.9086343072  CLST      6               1.0000000000
        28         6  DCM       H2              3.5133786293       -7.6421529048      -10.5093128739  CLST      6               1.0000000000
        29         6  DCM       CL1             1.8333492688       -8.6359579051       -9.1228918961  CLST      6               1.0000000000
        30         6  DCM       CL2             4.4374656786       -7.5877858866       -8.3030402924  CLST      6               1.0000000000
        31         7  DCM       C             -12.1682646939       -9.6785557493        8.2053266694  CLST      7               1.0000000000
        32         7  DCM       H1            -13.1120357994       -9.6252171433        7.6230281130  CLST      7               1.0000000000
        33         7  DCM       H2            -12.0318127444      -10.6857039702        8.6536134905  CLST      7               1.0000000000
        34         7  DCM       CL1           -10.7925012663       -9.3352583832        7.1156171461  CLST      7               1.0000000000
        35         7  DCM       CL2           -12.2246719669       -8.4627766637        9.5153320888  CLST      7               1.0000000000
        36         8  DCM       C              -7.2884279152        0.1196813594       -9.6101359111  CLST      8               1.0000000000
        37         8  DCM       H1             -8.2955517750       -0.1112737272       -9.2016340226  CLST      8               1.0000000000
        38         8  DCM       H2             -7.2219297805        1.1810621151       -9.9302615228  CLST      8               1.0000000000
        39         8  DCM       CL1            -6.0622758920       -0.1854758282       -8.3475707619  CLST      8               1.0000000000
        40         8  DCM       CL2            -6.9730208625       -0.9296609140      -11.0214320806  CLST      8               1.0000000000
        41         9  DCM       C              11.4527772922       -3.9563412001        6.9599515772  CLST      9               1.0000000000
        42         9  DCM       H1             11.3552333587       -4.4714107532        5.9811563427  CLST      9               1.0000000000
        43         9  DCM       H2             10.5356238901       -4.0886623225        7.5717704041  CLST      9               1.0000000000
        44         9  DCM       CL1            12.8417819266       -4.6475792256        7.8465821158  CLST      9               1.0000000000
        45         9  DCM       CL2            11.7214800331       -2.2127127740        6.6732235066  CLST      9               1.0000000000
        46        10  DCM       C               2.5505167228        3.7664364129       -0.5376010391  CLST      10              1.0000000000
        47        10  DCM       H1              3.3633139015        3.0426935215       -0.7604533178  CLST      10              1.0000000000
        48        10  DCM       H2              2.3907993772        3.8628470595        0.5542565484  CLST      10              1.0000000000
        49        10  DCM       CL1             2.9973746795        5.3659987672       -1.1983723817  CLST      10              1.0000000000
        50        10  DCM       CL2             1.0369412672        3.1906605202       -1.2939021080  CLST      10              1.0000000000
        51        11  DCM       C              -8.9661981510      -10.2636676226       10.3964905928  CLST      11              1.0000000000
        52        11  DCM       H1             -7.8585897338      -10.2491525090       10.3288504894  CLST      11              1.0000000000
        53        11  DCM       H2             -9.4119895331       -9.5309063476        9.6943312656  CLST      11              1.0000000000
        54        11  DCM       CL1            -9.5558058516      -11.8986139069        9.9823958574  CLST      11              1.0000000000
        55        11  DCM       CL2            -9.4551983224       -9.8427414024       12.0625458364  CLST      11              1.0000000000
        56        12  DCM       C              -7.5441635524       -3.7789375003       -8.4897321344  CLST      12              1.0000000000
        57        12  DCM       H1             -7.4063085013       -3.3868598298       -9.5180033816  CLST      12              1.0000000000
        58        12  DCM       H2             -6.6135613041       -3.6760859353       -7.8955915052  CLST      12              1.0000000000
        59        12  DCM       CL1            -8.8413849057       -2.8558288986       -7.6812048755  CLST      12              1.0000000000
        60        12  DCM       CL2            -7.9926597800       -5.5066166827       -8.5827188796  CLST      12              1.0000000000
        61        13  DCM       C               4.9490681177       -3.5516917866      -10.1925189878  CLST      13              1.0000000000
        62        13  DCM       H1              5.6791781985       -2.7764132897      -10.5052193224  CLST      13              1.0000000000
        63        13  DCM       H2              3.9225594589       -3.2790278798      -10.5153749468  CLST      13              1.0000000000
        64        13  DCM       CL1             4.9827908184       -3.7036710795       -8.4106778222  CLST      13              1.0000000000
        65        13  DCM       CL2             5.3989191788       -5.1115092764      -10.9406814171  CLST      13              1.0000000000
        66        14  DCM       C              -5.5196003130        4.4064062771       11.6084390531  CLST      14              1.0000000000
        67        14  DCM       H1             -5.6546897230        5.5005784787       11.7421457525  CLST      14              1.0000000000
        68        14  DCM       H2             -6.4084459705        3.8452032822       11.9653373969  CLST      14              1.0000000000
        69        14  DCM       CL1            -5.2717903135        4.0594555521        9.8727106718  CLST      14              1.0000000000
        70        14  DCM       CL2            -4.0866025430        3.8789839343       12.5390832879  CLST      14              1.0000000000
        71        15  DCM       C              -1.2883789788        3.6541167073        9.9166509718  CLST      15              1.0000000000
        72        15  DCM       H1             -1.9377268919        4.3705235147       10.4602235399  CLST      15              1.0000000000
        73        15  DCM       H2             -1.1730036552        2.7077166358       10.4840401488  CLST      15              1.0000000000
        74        15  DCM       CL1            -2.0258237826        3.2929858966        8.3294458196  CLST      15              1.0000000000
        75        15  DCM       CL2             0.3220845454        4.3922132720        9.6803247294  CLST      15              1.0000000000
        76        16  DCM       C               8.9546005859        6.2895842264       -3.8047163914  CLST      16              1.0000000000
        77        16  DCM       H1              9.3442277345        5.9483896837       -2.8227475517  CLST      16              1.0000000000
        78        16  DCM       H2              8.0328404155        6.8945674371       -3.6811170243  CLST      16              1.0000000000
        79        16  DCM       CL1            10.1983613064        7.2879045001       -4.6125399532  CLST      16              1.0000000000
        80        16  DCM       CL2             8.5796166449        4.8606162488       -4.8097559388  CLST      16              1.0000000000
        81        17  DCM       C               3.2168948173       10.8719785944        9.6827778498  CLST      17              1.0000000000
        82        17  DCM       H1              3.2780128270       11.8269705096       10.2452386562  CLST      17              1.0000000000
        83        17  DCM       H2              2.7616911436       10.0727037148       10.3015706244  CLST      17              1.0000000000
        84        17  DCM       CL1             2.2128468493       11.1203624049        8.2243715033  CLST      17              1.0000000000
        85        17  DCM       CL2             4.8655794944       10.3687592054        9.2063219926  CLST      17              1.0000000000
        86        18  DCM       C               6.0016776255       -0.7501999113        9.8216188199  CLST      18              1.0000000000
        87        18  DCM       H1              6.4740428642        0.2334465769       10.0211662383  CLST      18              1.0000000000
        88        18  DCM       H2              6.7513415550       -1.5678829890        9.8537424190  CLST      18              1.0000000000
        89        18  DCM       CL1             5.2462708451       -0.7162482049        8.2017352077  CLST      18              1.0000000000
        90        18  DCM       CL2             4.7518481237       -1.0579239817       11.0620468546  CLST      18              1.0000000000
        91        19  DCM       C               1.7503041717        0.0948842844        9.3179253230  CLST      19              1.0000000000
        92        19  DCM       H1              1.6539844393       -0.1792858777       10.3898540969  CLST      19              1.0000000000
        93        19  DCM       H2              2.2792983964       -0.6984622019        8.7486849776  CLST      19              1.0000000000
        94        19  DCM       CL1             2.6766068465        1.6173461373        9.1911111891  CLST      19              1.0000000000
        95        19  DCM       CL2             0.1193266207        0.3174394531        8.6232994921  CLST      19              1.0000000000
        96        20  DCM       C              -2.0709980222        0.1600950579       -7.7825694368  CLST      20              1.0000000000
        97        20  DCM       H1             -2.0409918851        1.1493962430       -7.2802283333  CLST      20              1.0000000000
        98        20  DCM       H2             -2.8988490157       -0.4628450565       -7.3839897213  CLST      20              1.0000000000
        99        20  DCM       CL1            -2.3104717766        0.3991234056       -9.5370014217  CLST      20              1.0000000000
       100        20  DCM       CL2            -0.5167813528       -0.6710718177       -7.4961127947  CLST      20              1.0000000000
       101        21  DCM       C              -5.5238558871        5.8085414870        5.1574092065  CLST      21              1.0000000000
       102        21  DCM       H1             -6.5757250642        5.4520152224        5.1361569995  CLST      21              1.0000000000
       103        21  DCM       H2             -5.0615356102        5.7538107549        4.1490013172  CLST      21              1.0000000000
       104        21  DCM       CL1            -5.4946022323        7.5041234331        5.7196401832  CLST      21              1.0000000000
       105        21  DCM       CL2            -4.5854670205        4.7862306156        6.2820907830  CLST      21              1.0000000000
       106        22  DCM       C              -4.5608625084        4.8707707385       -8.9533405819  CLST      22              1.0000000000
       107        22  DCM       H1             -5.2004443738        5.3478698258       -9.7248280466  CLST      22              1.0000000000
       108        22  DCM       H2             -3.5109214238        5.2175544103       -9.0407142073  CLST      22              1.0000000000
       109        22  DCM       CL1            -5.1823237527        5.2991039684       -7.3340147853  CLST      22              1.0000000000
       110        22  DCM       CL2            -4.6123839185        3.0983967657       -9.1706176490  CLST      22              1.0000000000
       111        23  DCM       C              -2.1350868809       -3.4657349100       -8.7709449008  CLST      23              1.0000000000
       112        23  DCM       H1             -1.6977912514       -2.6420354967       -9.3736901900  CLST      23              1.0000000000
       113        23  DCM       H2             -1.5791825835       -3.6039070276       -7.8189951208  CLST      23              1.0000000000
       114        23  DCM       CL1            -2.0508255367       -4.9735693024       -9.7224077358  CLST      23              1.0000000000
       115        23  DCM       CL2            -3.8369947049       -3.0722273010       -8.4017956475  CLST      23              1.0000000000
       116        24  DCM       C               0.3452022607        8.1364307368        9.9113460803  CLST      24              1.0000000000
       117        24  DCM       H1             -0.4255879182        7.3542761064        9.7536882233  CLST      24              1.0000000000
       118        24  DCM       H2              0.8289588578        8.4137061714        8.9509493212  CLST      24              1.0000000000
       119        24  DCM       CL1            -0.4273640460        9.5873420105       10.6126210681  CLST      24              1.0000000000
       120        24  DCM       CL2             1.5828186864        7.5089741163       11.0375179398  CLST      24              1.0000000000
       121        25  DCM       C               0.5255643951        1.6701191018        2.7094979029  CLST      25              1.0000000000
       122        25  DCM       H1             -0.3706531857        1.2760233629        2.1853883170  CLST      25              1.0000000000
       123        25  DCM       H2              0.5619268249        1.3147015240        3.7612089955  CLST      25              1.0000000000
       124        25  DCM       CL1             1.9910038235        1.1062645596        1.8544126267  CLST      25              1.0000000000
       125        25  DCM       CL2             0.4643124176        3.4573320805        2.6988317380  CLST      25              1.0000000000
       126        26  DCM       C              -2.8766663260       -1.1522686247       -3.2161903935  CLST      26              1.0000000000
       127        26  DCM       H1             -3.8851785967       -1.5433257129       -2.9690363440  CLST      26              1.0000000000
       128        26  DCM       H2             -2.8964512973       -0.0498234654       -3.3374885991  CLST      26              1.0000000000
       129        26  DCM       CL1            -1.7473468468       -1.5682323364       -1.8966070767  CLST      26              1.0000000000
       130        26  DCM       CL2            -2.3201676183       -1.8989259191       -4.7400284522  CLST      26              1.0000000000
       131        27  DCM       C              -5.4211695759       -7.4369905267       -0.4644554278  CLST      27              1.0000000000
       132        27  DCM       H1             -5.9330799342       -6.4566702516       -0.3758877221  CLST      27              1.0000000000
       133        27  DCM       H2             -5.3258980380       -7.7391210673       -1.5284544180  CLST      27              1.0000000000
       134        27  DCM       CL1            -3.7910605695       -7.3109547323        0.2564450078  CLST      27              1.0000000000
       135        27  DCM       CL2            -6.3771129132       -8.6666629755        0.4094833563  CLST      27              1.0000000000
       136        28  DCM       C              -6.8703559208        8.0939667123       -9.9973687602  CLST      28              1.0000000000
       137        28  DCM       H1             -7.3186369304        9.0463116266      -10.3517214834  CLST      28              1.0000000000
       138        28  DCM       H2             -6.9891417537        7.2897781626      -10.7538431037  CLST      28              1.0000000000
       139        28  DCM       CL1            -5.1281548189        8.3527193310       -9.6895407332  CLST      28              1.0000000000
       140        28  DCM       CL2            -7.6872342328        7.5970429897       -8.4867908508  CLST      28              1.0000000000
       141        29  DCM       C               8.5080824824        6.8193437780       -8.0395905889  CLST      29              1.0000000000
       142        29  DCM       H1              8.5297088687        7.4442275788       -8.9570811012  CLST      29              1.0000000000
       143        29  DCM       H2              9.4739613561        6.8731782057       -7.4955702687  CLST      29              1.0000000000
       144        29  DCM       CL1             8.1967096918        5.1207196663       -8.5000174642  CLST      29              1.0000000000
       145        29  DCM       CL2             7.2032385365        7.4048708863       -6.9676972579  CLST      29              1.0000000000
       146        30  DCM       C              11.0033794325       -0.1991078297       -6.6495824162  CLST      30              1.0000000000
       147        30  DCM       H1             11.5603162844       -0.6564017215       -7.4944648571  CLST      30              1.0000000000
       148        30  DCM       H2             11.6999230902        0.1924022632       -5.8784597205  CLST      30              1.0000000000
       149        30  DCM       CL1            10.0080872808        1.1495069262       -7.2721318225  CLST      30              1.0000000000
       150        30  DCM       CL2             9.9531823093       -1.4386809012       -5.9029820128  CLST      30              1.0000000000
       151        31  DCM       C               6.9505515812       -5.5672309967        8.2425258642  CLST      31              1.0000000000
       152        31  DCM       H1              6.6420652258       -5.6150558449        7.1771134627  CLST      31              1.0000000000
       153        31  DCM       H2              8.0023398419       -5.2251062781        8.3361747755  CLST      31              1.0000000000
       154        31  DCM       CL1             5.8843029997       -4.4217692736        9.1070163376  CLST      31              1.0000000000
       155        31  DCM       CL2             6.8010689643       -7.1947207416        8.9663209737  CLST      31              1.0000000000
       156        32  DCM       C              10.9002177397       -7.4034287690        2.0593530115  CLST      32              1.0000000000
       157        32  DCM       H1             10.1943006078       -7.0086954572        1.2990698793  CLST      32              1.0000000000
       158        32  DCM       H2             11.8983490353       -7.6003629972        1.6145706289  CLST      32              1.0000000000
       159        32  DCM       CL1            11.0747194321       -6.2001064572        3.3707174131  CLST      32              1.0000000000
       160        32  DCM       CL2            10.2470050300       -8.9309047987        2.7208141415  CLST      32              1.0000000000
       161        33  DCM       C              -1.0850938359        5.7534958361        5.2944086743  CLST      33              1.0000000000
       162        33  DCM       H1             -1.5389025211        4.7406832293        5.3357570106  CLST      33              1.0000000000
       163        33  DCM       H2             -0.0277177259        5.7035182827        4.9596652380  CLST      33              1.0000000000
       164        33  DCM       CL1            -2.0060052612        6.7616076255        4.1417442236  CLST      33              1.0000000000
       165        33  DCM       CL2            -1.1465220083        6.4850243480        6.9241441335  CLST      33              1.0000000000
       166        34  DCM       C               6.8003113445       11.4047778123       -9.5367987313  CLST      34              1.0000000000
       167        34  DCM       H1              6.6506726461       10.9098786004      -10.5198537637  CLST      34              1.0000000000
       168        34  DCM       H2              7.0676146427       12.4753312444       -9.6652856187  CLST      34              1.0000000000
       169        34  DCM       CL1             5.2856591727       11.2919648048       -8.5925680742  CLST      34              1.0000000000
       170        34  DCM       CL2             8.1232980128       10.5756095239       -8.6656395845  CLST      34              1.0000000000
       171        35  DCM       C             -10.0982632471       -3.2105108157      -11.3068193198  CLST      35              1.0000000000
       172        35  DCM       H1             -9.5664406337       -2.4552972077      -10.6911170163  CLST      35              1.0000000000
       173        35  DCM       H2            -10.7226007465       -2.7233753057      -12.0853087856  CLST      35              1.0000000000
       174        35  DCM       CL1            -8.8943753180       -4.2624440054      -12.1040443119  CLST      35              1.0000000000
       175        35  DCM       CL2           -11.1517605527       -4.1850685252      -10.2422678302  CLST      35              1.0000000000
       176        36  DCM       C             -12.2524252304        9.2411274625        3.6205536105  CLST      36              1.0000000000
       177        36  DCM       H1            -12.6993706941        8.3611784835        4.1298782393  CLST      36              1.0000000000
       178        36  DCM       H2            -11.1622713490        9.1002231802        3.4624619911  CLST      36              1.0000000000
       179        36  DCM       CL1           -13.0462431305        9.4598006554        2.0331999452  CLST      36              1.0000000000
       180        36  DCM       CL2           -12.5086431860       10.6919601304        4.6325049839  CLST      36              1.0000000000
       181        37  DCM       C              -4.3610516261       -9.2814760124        3.6060187084  CLST      37              1.0000000000
       182        37  DCM       H1             -4.0254037160      -10.1635705457        4.1914149681  CLST      37              1.0000000000
       183        37  DCM       H2             -4.3531739509       -9.4989669457        2.5169136170  CLST      37              1.0000000000
       184        37  DCM       CL1            -6.0236638312       -8.8542702762        4.1021488572  CLST      37              1.0000000000
       185        37  DCM       CL2            -3.2601742844       -7.9124879282        3.9336735772  CLST      37              1.0000000000
       186        38  DCM       C              -1.1605127397       -8.1122434321       -6.8137932522  CLST      38              1.0000000000
       187        38  DCM       H1             -0.2919922495       -8.7995183577       -6.7353210127  CLST      38              1.0000000000
       188        38  DCM       H2             -1.9274266599       -8.3457558412       -6.0459532928  CLST      38              1.0000000000
       189        38  DCM       CL1            -0.5956050931       -6.4324749204       -6.5805914311  CLST      38              1.0000000000
       190        38  DCM       CL2            -1.8937633885       -8.2873954606       -8.4347441282  CLST      38              1.0000000000
       191        39  DCM       C               4.0914410566        1.2918577622        5.1168699525  CLST      39              1.0000000000
       192        39  DCM       H1              3.7709353694        1.8546645752        4.2151815545  CLST      39              1.0000000000
       193        39  DCM       H2              4.1300479523        1.9547194548        6.0060945845  CLST      39              1.0000000000
       194        39  DCM       CL1             2.9220311970       -0.0232447723        5.4291852749  CLST      39              1.0000000000
       195        39  DCM       CL2             5.7172315072        0.6066216294        4.8281099582  CLST      39              1.0000000000
       196        40  DCM       C              -5.6191701226       -5.6448522815        8.0491331597  CLST      40              1.0000000000
       197        40  DCM       H1             -6.5709555358       -6.2068628184        7.9530701231  CLST      40              1.0000000000
       198        40  DCM       H2             -5.0095697957       -6.0310159791        8.8927380521  CLST      40              1.0000000000
       199        40  DCM       CL1            -4.6930593942       -5.8214093364        6.5326108472  CLST      40              1.0000000000
       200        40  DCM       CL2            -5.9863248864       -3.9214778037        8.3430577438  CLST      40              1.0000000000
       201        41  DCM       C              10.0134644700        1.2586360412       -2.3758285277  CLST      41              1.0000000000
       202        41  DCM       H1             10.2070049306        2.2802797602       -1.9860896355  CLST      41              1.0000000000
       203        41  DCM       H2              9.5551863095        0.6131207988       -1.5973337425  CLST      41              1.0000000000
       204        41  DCM       CL1             8.8991133510        1.3699712384       -3.7673571611  CLST      41              1.0000000000
       205        41  DCM       CL2            11.5602657621        0.5312167208       -2.8993068858  CLST      41              1.0000000000
       206        42  DCM       C               3.3315648431       -1.3902567070       -2.0550518926  CLST      42              1.0000000000
       207        42  DCM       H1              4.0675323271       -2.1743947283       -1.7777500482  CLST      42              1.0000000000
       208        42  DCM       H2              3.1581665030       -1.3751467960       -3.1520038814  CLST      42              1.0000000000
       209        42  DCM       CL1             1.7867187907       -1.7229948643       -1.2213967181  CLST      42              1.0000000000
       210        42  DCM       CL2             3.9577670309        0.2015712308       -1.5399341589  CLST      42              1.0000000000
       211        43  DCM       C               2.1774254436        4.3128314416        6.5658464630  CLST      43              1.0000000000
       212        43  DCM       H1              1.6314027807        5.1892081681        6.9747672407  CLST      43              1.0000000000
       213        43  DCM       H2              2.9522347753        3.9627440954        7.2804186458  CLST      43              1.0000000000
       214        43  DCM       CL1             1.0105824471        2.9940495866        6.2702554553  CLST      43              1.0000000000
       215        43  DCM       CL2             2.9618350416        4.7769103613        5.0289640914  CLST      43              1.0000000000
       216        44  DCM       C              -5.9129400328       10.8047739532       -6.9942929096  CLST      44              1.0000000000
       217        44  DCM       H1             -4.9167457499       11.2273328192       -7.2421126728  CLST      44              1.0000000000
       218        44  DCM       H2             -5.8849040835        9.6945400328       -6.9863507478  CLST      44              1.0000000000
       219        44  DCM       CL1            -6.4028452333       11.3842845948       -5.3763382845  CLST      44              1.0000000000
       220        44  DCM       CL2            -7.0948919623       11.3517023722       -8.2189916087  CLST      44              1.0000000000
       221        45  DCM       C              -8.7838660123       -1.2270481902        9.0993371060  CLST      45              1.0000000000
       222        45  DCM       H1             -9.8040601597       -1.1290376004        8.6713865964  CLST      45              1.0000000000
       223        45  DCM       H2             -8.0529009768       -1.5344676634        8.3219077512  CLST      45              1.0000000000
       224        45  DCM       CL1            -8.2796929683        0.3487248778        9.7785291131  CLST      45              1.0000000000
       225        45  DCM       CL2            -8.8136473072       -2.4658594722       10.3883451907  CLST      45              1.0000000000
       226        46  DCM       C               4.4479756289        7.6163888153       -9.2644074432  CLST      46              1.0000000000
       227        46  DCM       H1              4.2303793855        8.5506323813       -8.7071942266  CLST      46              1.0000000000
       228        46  DCM       H2              4.7210270516        6.7956094063       -8.5702185417  CLST      46              1.0000000000
       229        46  DCM       CL1             2.9950839719        7.1384369038      -10.1883534952  CLST      46              1.0000000000
       230        46  DCM       CL2             5.8098825842        7.9047429191      -10.3861528198  CLST      46              1.0000000000
       231        47  DCM       C               3.3317198754        8.2734244961        6.1411261820  CLST      47              1.0000000000
       232        47  DCM       H1              3.6949407367        9.3145920008        6.2724865177  CLST      47              1.0000000000
       233        47  DCM       H2              3.9916603097        7.7025385517        5.4550476966  CLST      47              1.0000000000
       234        47  DCM       CL1             3.3100666447        7.4622792357        7.7317426337  CLST      47              1.0000000000
       235        47  DCM       CL2             1.6774665046        8.3118349667        5.4647460116  CLST      47              1.0000000000
       236        48  DCM       C              11.8986019101        3.6853578758       -5.1431108687  CLST      48              1.0000000000
       237        48  DCM       H1             11.8243819736        4.5765124984       -5.8014547952  CLST      48              1.0000000000
       238        48  DCM       H2             10.9843251160        3.0603243117       -5.2145669295  CLST      48              1.0000000000
       239        48  DCM       CL1            13.3099712449        2.7065590617       -5.6384010117  CLST      48              1.0000000000
       240        48  DCM       CL2            12.0983067102        4.2262409112       -3.4507001770  CLST      48              1.0000000000
       241        49  DCM       C               7.7257280015       -2.5057507437        5.5414397231  CLST      49              1.0000000000
       242        49  DCM       H1              8.2159097452       -1.7111629002        4.9399481349  CLST      49              1.0000000000
       243        49  DCM       H2              6.6193007054       -2.4411725477        5.4643024320  CLST      49              1.0000000000
       244        49  DCM       CL1             8.2652692917       -4.1054576382        4.9540171008  CLST      49              1.0000000000
       245        49  DCM       CL2             8.1972595598       -2.3086115704        7.2506094144  CLST      49              1.0000000000
       246        50  DCM       C               1.7300791440        5.0829628227       -5.4216172443  CLST      50              1.0000000000
       247        50  DCM       H1              2.7027421801        5.3314573577       -4.9524370288  CLST      50              1.0000000000
       248        50  DCM       H2              1.7109509460        4.0238525266       -5.7529777928  CLST      50              1.0000000000
       249        50  DCM       CL1             0.4307531195        5.3389217891       -4.2246450190  CLST      50              1.0000000000
       250        50  DCM       CL2             1.4847150772        6.1524363869       -6.8313541493  CLST      50              1.0000000000
       251        51  DCM       C              -1.8728573411       12.2831887069       -4.6447066385  CLST      51              1.0000000000
       252        51  DCM       H1             -1.7667429973       13.1620704540       -3.9741456261  CLST      51              1.0000000000
       253        51  DCM       H2             -0.8949092001       11.7820659422       -4.8022021963  CLST      51              1.0000000000
       254        51  DCM       CL1            -3.0071118481       11.1190440957       -3.9016882844  CLST      51              1.0000000000
       255        51  DCM       CL2            -2.5086818892       12.8273859532       -6.2242446514  CLST      51              1.0000000000
       256        52  DCM       C               2.5872229135       11.5536256461       -2.9675989965  CLST      52              1.0000000000
       257        52  DCM       H1              3.0651803725       12.4684374027       -3.3760266886  CLST      52              1.0000000000
       258        52  DCM       H2              2.5010537308       10.7677332060       -3.7464676012  CLST      52              1.0000000000
       259        52  DCM       CL1             3.5844159551       10.9271580995       -1.6228332255  CLST      52              1.0000000000
       260        52  DCM       CL2             0.9541355919       11.9724844906       -2.3722235472  CLST      52              1.0000000000
       261        53  DCM       C              -8.4320238771        3.7524677007       -8.7463042034  CLST      53              1.0000000000
       262        53  DCM       H1             -7.6607069074        3.0903771092       -8.2996363867  CLST      53              1.0000000000
       263        53  DCM       H2             -8.6067746288        4.6442749080       -8.1077299837  CLST      53              1.0000000000
       264        53  DCM       CL1            -9.9603133086        2.8417286674       -8.9070095003  CLST      53              1.0000000000
       265        53  DCM       CL2            -7.8838898369        4.2845714198      -10.3622451159  CLST      53              1.0000000000
       266        54  DCM       C              -4.5112748423       -6.0505870523       -6.6634863120  CLST      54              1.0000000000
       267        54  DCM       H1             -3.7942222313       -6.0853233002       -7.5097951439  CLST      54              1.0000000000
       268        54  DCM       H2             -5.4453740442       -5.5256709688       -6.9508068247  CLST      54              1.0000000000
       269        54  DCM       CL1            -3.7553841955       -5.1806804837       -5.2997216905  CLST      54              1.0000000000
       270        54  DCM       CL2            -4.9123120485       -7.7190995911       -6.1714130407  CLST      54              1.0000000000
       271        55  DCM       C               6.8216321572       10.7227583192       -5.2586623039  CLST      55              1.0000000000
       272        55  DCM       H1              6.4616444794       10.0462453463       -6.0612515232  CLST      55              1.0000000000
       273        55  DCM       H2              7.7531284118       11.2432570015       -5.5649054166  CLST      55              1.0000000000
       274        55  DCM       CL1             5.5559378083       11.9386013938       -4.9233303202  CLST      55              1.0000000000
       275        55  DCM       CL2             7.1452305069        9.7603917037       -3.7877474277  CLST      55              1.0000000000
       276        56  DCM       C               6.3265010924        2.7285270112        7.9555735024  CLST      56              1.0000000000
       277        56  DCM       H1              5.3508120130        2.3974584326        8.3667858255  CLST      56              1.0000000000
       278        56  DCM       H2              6.7969640000        1.9265993213        7.3495273080  CLST      56              1.0000000000
       279        56  DCM       CL1             6.0613152796        4.1611204407        6.9213351662  CLST      56              1.0000000000
       280        56  DCM       CL2             7.4114611072        3.1484217179        9.3118407992  CLST      56              1.0000000000
       281        57  DCM       C               0.6598401055       11.1646833249       -7.6078814889  CLST      57              1.0000000000
       282        57  DCM       H1             -0.3158276190       10.9530171895       -7.1239342419  CLST      57              1.0000000000
       283        57  DCM       H2              0.5338278601       11.8298722172       -8.4883083074  CLST      57              1.0000000000
       284        57  DCM       CL1             1.3798238482        9.6212716719       -8.1428193885  CLST      57              1.0000000000
       285        57  DCM       CL2             1.7393807234       11.9573938737       -6.4242578965  CLST      57              1.0000000000
       286        58  DCM       C              10.4364691831        1.0150604637        8.2180507991  CLST      58              1.0000000000
       287        58  DCM       H1             10.6141951584        2.0683675585        8.5215296914  CLST      58              1.0000000000
       288        58  DCM       H2             11.3948857466        0.4748557543        8.0655020898  CLST      58              1.0000000000
       289        58  DCM       CL1             9.5040533724        0.1907200419        9.5012529480  CLST      58              1.0000000000
       290        58  DCM       CL2             9.5098071151        1.0006925856        6.6886189011  CLST      58              1.0000000000
       291        59  DCM       C              -1.3587416577       -7.1713209666       -2.7127580977  CLST      59              1.0000000000
       292        59  DCM       H1             -0.6634869163       -7.1407235350       -3.5779189844  CLST      59              1.0000000000
       293        59  DCM       H2             -0.9093709635       -7.7171241145       -1.8563597875  CLST      59              1.0000000000
       294        59  DCM       CL1            -1.7249685508       -5.4977582274       -2.2033656930  CLST      59              1.0000000000
       295        59  DCM       CL2            -2.8628090038       -8.0019171910       -3.2048399715  CLST      59              1.0000000000
       296        60  DCM       C              -8.4425339309       -4.6796607150        5.5131732975  CLST      60              1.0000000000
       297        60  DCM       H1             -8.9301235277       -4.3395979378        4.5747134584  CLST      60              1.0000000000
       298        60  DCM       H2             -7.3820105070       -4.3530172446        5.5540744436  CLST      60              1.0000000000
       299        60  DCM       CL1            -9.3142917416       -3.9826839185        6.9071833551  CLST      60              1.0000000000
       300        60  DCM       CL2            -8.5061843352       -6.4642845583        5.5882642891  CLST      60              1.0000000000
       301        61  DCM       C              -1.9606940996        7.6070833523       -7.3153865565  CLST      61              1.0000000000
       302        61  DCM       H1             -1.0453491066        7.4974288855       -6.7008327007  CLST      61              1.0000000000
       303        61  DCM       H2             -2.7052783554        6.8241247712       -7.0639212577  CLST      61              1.0000000000
       304        61  DCM       CL1            -2.6837149292        9.2085415809       -7.0000685757  CLST      61              1.0000000000
       305        61  DCM       CL2            -1.5241626328        7.4689656169       -9.0435626039  CLST      61              1.0000000000
       306        62  DCM       C              -6.0995233135      -12.2079128613       11.8988722326  CLST      62              1.0000000000
       307        62  DCM       H1             -5.4746132582      -12.9033340361       12.4972190307  CLST      62              1.0000000000
       308        62  DCM       H2             -7.1752101960      -12.3153108014       12.1530111945  CLST      62              1.0000000000
       309        62  DCM       CL1            -5.5870656334      -10.5287602446       12.2377754971  CLST      62              1.0000000000
       310        62  DCM       CL2            -5.8728162986      -12.5713397915       10.1628120657  CLST      62              1.0000000000
       311        63  DCM       C              10.6033061283       -4.6899024644       10.9362399857  CLST      63              1.0000000000
       312        63  DCM       H1             11.6152662935       -4.3748057202       10.6065644629  CLST      63              1.0000000000
       313        63  DCM       H2             10.5589462954       -4.7994847575       12.0395384125  CLST      63              1.0000000000
       314        63  DCM       CL1             9.4128868332       -3.4572555379       10.4258190195  CLST      63              1.0000000000
       315        63  DCM       CL2            10.2109524499       -6.2609807888       10.1810044230  CLST      63              1.0000000000
       316        64  DCM       C              -0.4999125538        3.6135847308      -11.9595637741  CLST      64              1.0000000000
       317        64  DCM       H1             -0.6543528661        2.6091855778      -11.5090775473  CLST      64              1.0000000000
       318        64  DCM       H2             -0.3700205828        3.5417946398      -13.0609063057  CLST      64              1.0000000000
       319        64  DCM       CL1            -1.9234350922        4.6372001847      -11.6085235587  CLST      64              1.0000000000
       320        64  DCM       CL2             0.9680956059        4.3479008873      -11.2525435194  CLST      64              1.0000000000
       321        65  DCM       C              -3.7866042364        7.4725223641        9.2346449922  CLST      65              1.0000000000
       322        65  DCM       H1             -3.7426625790        6.5797704327        8.5755035983  CLST      65              1.0000000000
       323        65  DCM       H2             -3.2017130524        8.3141606856        8.8078678718  CLST      65              1.0000000000
       324        65  DCM       CL1            -5.4910721580        7.9778904792        9.4175058005  CLST      65              1.0000000000
       325        65  DCM       CL2            -3.1106685843        7.0501254374       10.8333842494  CLST      65              1.0000000000
       326        66  DCM       C               3.9676111800        7.8707044814       -4.0261081439  CLST      66              1.0000000000
       327        66  DCM       H1              2.9775893117        7.4573185599       -3.7414661846  CLST      66              1.0000000000
       328        66  DCM       H2              4.3111943194        8.6273941711       -3.2912469095  CLST      66              1.0000000000
       329        66  DCM       CL1             5.1587811710        6.5405811200       -4.0836568147  CLST      66              1.0000000000
       330        66  DCM       CL2             3.8377140806        8.6369015856       -5.6351725207  CLST      66              1.0000000000
       331        67  DCM       C              12.1147661072       -1.1914099647       11.8310343080  CLST      67              1.0000000000
       332        67  DCM       H1             11.0065637731       -1.1286999970       11.7974065635  CLST      67              1.0000000000
       333        67  DCM       H2             12.5593698806       -0.2357676031       12.1798368118  CLST      67              1.0000000000
       334        67  DCM       CL1            12.7271387104       -1.5531890897       10.1905208823  CLST      67              1.0000000000
       335        67  DCM       CL2            12.5874635338       -2.4974574256       12.9566363109  CLST      67              1.0000000000
       336        68  DCM       C              -5.1094736218       -6.2439198366      -10.8214661116  CLST      68              1.0000000000
       337        68  DCM       H1             -5.1023878002       -6.2671711239       -9.7115265793  CLST      68              1.0000000000
       338        68  DCM       H2             -4.1527506398       -6.6284450353      -11.2350357846  CLST      68              1.0000000000
       339        68  DCM       CL1            -6.4496723906       -7.2645394261      -11.4156920945  CLST      68              1.0000000000
       340        68  DCM       CL2            -5.3415597095       -4.5573429906      -11.3666093442  CLST      68              1.0000000000
       341        69  DCM       C              -5.8774959831       -5.3987284516        2.9784807458  CLST      69              1.0000000000
       342        69  DCM       H1             -5.0884856781       -5.9378757838        2.4154431415  CLST      69              1.0000000000
       343        69  DCM       H2             -6.1215056992       -5.9323889587        3.9198864361  CLST      69              1.0000000000
       344        69  DCM       CL1            -5.2921788518       -3.7578846847        3.3753885169  CLST      69              1.0000000000
       345        69  DCM       CL2            -7.3496251764       -5.2912586127        1.9706026774  CLST      69              1.0000000000
       346        70  DCM       C              -7.8649919629      -10.5289526866       -2.4839943064  CLST      70              1.0000000000
       347        70  DCM       H1             -7.5290361241      -11.0023442700       -1.5376013000  CLST      70              1.0000000000
       348        70  DCM       H2             -8.3448137562      -11.2726915193       -3.1559869435  CLST      70              1.0000000000
       349        70  DCM       CL1            -9.0493590903       -9.2462208283       -2.0996359688  CLST      70              1.0000000000
       350        70  DCM       CL2            -6.4480634769       -9.8232229645       -3.3157232204  CLST      70              1.0000000000
       351        71  DCM       C              -7.3983467641       -6.2872501362       -3.6805205736  CLST      71              1.0000000000
       352        71  DCM       H1             -7.7983301590       -7.3008483889       -3.8880526700  CLST      71              1.0000000000
       353        71  DCM       H2             -6.2933699894       -6.3121185186       -3.5659437053  CLST      71              1.0000000000
       354        71  DCM       CL1            -8.1409707071       -5.6650916205       -2.1787227720  CLST      71              1.0000000000
       355        71  DCM       CL2            -7.8190136249       -5.2201800901       -5.0459815747  CLST      71              1.0000000000
       356        72  DCM       C               0.6579631521       -3.8024971225       -4.2251296391  CLST      72              1.0000000000
       357        72  DCM       H1             -0.2498895811       -4.2524396119       -4.6791948178  CLST      72              1.0000000000
       358        72  DCM       H2              0.3814087202       -3.0707048633       -3.4381292334  CLST      72              1.0000000000
       359        72  DCM       CL1             1.6555795650       -5.0938070699       -3.4965425535  CLST      72              1.0000000000
       360        72  DCM       CL2             1.5928207460       -2.9689463837       -5.4971435539  CLST      72              1.0000000000
       361        73  DCM       C               0.8658786177        0.5210089959       -4.0793172299  CLST      73              1.0000000000
       362        73  DCM       H1              0.5029575269       -0.5248441044       -3.9956248552  CLST      73              1.0000000000
       363        73  DCM       H2              1.3263579695        0.8618829449       -3.1273176059  CLST      73              1.0000000000
       364        73  DCM       CL1             2.0852638411        0.6132679809       -5.3822254331  CLST      73              1.0000000000
       365        73  DCM       CL2            -0.5161400534        1.5814079020       -4.4669397112  CLST      73              1.0000000000
       366        74  DCM       C             -12.0959457249        6.0982296956        1.0371917000  CLST      74              1.0000000000
       367        74  DCM       H1            -11.7460677103        6.8905056340        0.3417231177  CLST      74              1.0000000000
       368        74  DCM       H2            -13.1369249868        6.2932002958        1.3721700377  CLST      74              1.0000000000
       369        74  DCM       CL1           -12.0417736694        4.5212823684        0.1966399969  CLST      74              1.0000000000
       370        74  DCM       CL2           -11.0212939363        6.0618910098        2.4663284926  CLST      74              1.0000000000
       371        75  DCM       C              -5.3696582147       -9.4613001259        8.0979793068  CLST      75              1.0000000000
       372        75  DCM       H1             -5.3548639364       -9.7618602434        9.1670545901  CLST      75              1.0000000000
       373        75  DCM       H2             -4.8315372802       -8.5037729039        7.9454084213  CLST      75              1.0000000000
       374        75  DCM       CL1            -7.0646727139       -9.2652475007        7.5705216839  CLST      75              1.0000000000
       375        75  DCM       CL2            -4.5721722477      -10.7281668901        7.1225857434  CLST      75              1.0000000000
       376        76  DCM       C              -0.8883895443        3.7871595042       -8.2674935788  CLST      76              1.0000000000
       377        76  DCM       H1             -1.5785843788        3.3132864177       -8.9943424938  CLST      76              1.0000000000
       378        76  DCM       H2             -0.5211569895        4.7637392512       -8.6398002839  CLST      76              1.0000000000
       379        76  DCM       CL1            -1.7562317980        4.0379013068       -6.7265106025  CLST      76              1.0000000000
       380        76  DCM       CL2             0.5097862738        2.7047015890       -8.0117255173  CLST      76              1.0000000000
       381        77  DCM       C              -7.9911557522        5.5864500931        8.0573149258  CLST      77              1.0000000000
       382        77  DCM       H1             -6.9141236264        5.8475065541        7.9964323473  CLST      77              1.0000000000
       383        77  DCM       H2             -8.3456854451        5.6004692840        9.1095510699  CLST      77              1.0000000000
       384        77  DCM       CL1            -8.9305470041        6.7746175555        7.1068690799  CLST      77              1.0000000000
       385        77  DCM       CL2            -8.2232281614        3.9463770843        7.3848855897  CLST      77              1.0000000000
       386        78  DCM       C              -0.4156849609        8.5784411838       -2.9203635393  CLST      78              1.0000000000
       387        78  DCM       H1             -1.0078301482        9.4337131777       -2.5360391846  CLST      78              1.0000000000
       388        78  DCM       H2             -1.0402939676        7.6652284230       -3.0067895948  CLST      78              1.0000000000
       389        78  DCM       CL1             0.2370979098        8.9950229312       -4.5325939347  CLST      78              1.0000000000
       390        78  DCM       CL2             0.9298473038        8.2584440246       -1.7883999507  CLST      78              1.0000000000
       391        79  DCM       C              -7.0898315299       -1.8572535058       -4.1273207631  CLST      79              1.0000000000
       392        79  DCM       H1             -7.1234153303       -2.7119822988       -3.4194635130  CLST      79              1.0000000000
       393        79  DCM       H2             -8.0693449844       -1.7246965734       -4.6328870323  CLST      79              1.0000000000
       394        79  DCM       CL1            -6.6868743995       -0.3694650934       -3.2237386137  CLST      79              1.0000000000
       395        79  DCM       CL2            -5.8385244085       -2.1695184339       -5.3633107323  CLST      79              1.0000000000
       396        80  DCM       C               8.5463997723       -2.5217373306       -9.1477712016  CLST      80              1.0000000000
       397        80  DCM       H1              9.5698780673       -2.3363115420       -8.7602374309  CLST      80              1.0000000000
       398        80  DCM       H2              8.0505168969       -3.3444255586       -8.5907279723  CLST      80              1.0000000000
       399        80  DCM       CL1             7.5779166495       -1.0293871541       -8.9662521452  CLST      80              1.0000000000
       400        80  DCM       CL2             8.6545107238       -2.9696185146      -10.8751879017  CLST      80              1.0000000000
       401        81  DCM       C               3.9294569900        3.7780124690       -8.5258850602  CLST      81              1.0000000000
       402        81  DCM       H1              3.6274656649        2.7161032359       -8.4075819485  CLST      81              1.0000000000
       403        81  DCM       H2              3.0428548759        4.4332862862       -8.6537974723  CLST      81              1.0000000000
       404        81  DCM       CL1             4.8339471932        4.2914512827       -7.0711131227  CLST      81              1.0000000000
       405        81  DCM       CL2             4.9682366658        3.9303405234       -9.9721789501  CLST      81              1.0000000000
       406        82  DCM       C              -2.0346158371       -9.0875296607        9.7334162742  CLST      82              1.0000000000
       407        82  DCM       H1             -1.0077962615       -8.8771948531       10.1020876723  CLST      82              1.0000000000
       408        82  DCM       H2             -2.0824820147       -9.0237747799        8.6250111722  CLST      82              1.0000000000
       409        82  DCM       CL1            -2.5061739125      -10.7352328133       10.2403249783  CLST      82              1.0000000000
       410        82  DCM       CL2            -3.1604364919       -7.8898330763       10.4359403380  CLST      82              1.0000000000
       411        83  DCM       C               1.6011953901       -5.0848732132       -9.4558670478  CLST      83              1.0000000000
       412        83  DCM       H1              0.7736743008       -5.6846295985       -9.0251799745  CLST      83              1.0000000000
       413        83  DCM       H2              2.5792293335       -5.3971654020       -9.0353121764  CLST      83              1.0000000000
       414        83  DCM       CL1             1.3334552529       -3.3588529930       -9.0807105190  CLST      83              1.0000000000
       415        83  DCM       CL2             1.6230142111       -5.3219088453      -11.2270559775  CLST      83              1.0000000000
       416        84  DCM       C              -8.3020763508       -6.3673238788       10.7992100776  CLST      84              1.0000000000
       417        84  DCM       H1             -9.0014258887       -6.6461975092       11.6161469383  CLST      84              1.0000000000
       418        84  DCM       H2             -8.0271916186       -5.2936439632       10.8568902918  CLST      84              1.0000000000
       419        84  DCM       CL1            -6.8199011424       -7.3561170715       10.9348822903  CLST      84              1.0000000000
       420        84  DCM       CL2            -9.0918312480       -6.6806169190        9.2284854810  CLST      84              1.0000000000
       421        85  DCM       C             -11.4637807993       10.5091804056        8.4826219028  CLST      85              1.0000000000
       422        85  DCM       H1            -11.0936030027       10.0156925607        7.5588829645  CLST      85              1.0000000000
       423        85  DCM       H2            -10.8662408353       11.4149009488        8.7194320022  CLST      85              1.0000000000
       424        85  DCM       CL1           -13.1691863515       10.9874743494        8.2427534230  CLST      85              1.0000000000
       425        85  DCM       CL2           -11.3429320449        9.3591199952        9.8462492822  CLST      85              1.0000000000
       426        86  DCM       C              -9.9718778580       -7.7739701438      -11.0951626467  CLST      86              1.0000000000
       427        86  DCM       H1             -9.3465811649       -8.2107468462      -11.9022484636  CLST      86              1.0000000000
       428        86  DCM       H2             -9.5777074339       -6.7877603311      -10.7752278386  CLST      86              1.0000000000
       429        86  DCM       CL1           -11.6411127023       -7.5658173583      -11.6997793116  CLST      86              1.0000000000
       430        86  DCM       CL2            -9.9666559672       -8.8792520525       -9.6909649274  CLST      86              1.0000000000
       431        87  DCM       C             -12.1481764307       -6.3339414696        5.7931548275  CLST      87              1.0000000000
       432        87  DCM       H1            -11.3464952354       -6.2971587488        6.5607113243  CLST      87              1.0000000000
       433        87  DCM       H2            -11.9383356504       -7.1221778151        5.0391843391  CLST      87              1.0000000000
       434        87  DCM       CL1           -13.7046774499       -6.6912877281        6.5954810827  CLST      87              1.0000000000
       435        87  DCM       CL2           -12.2412352038       -4.7505868164        4.9699316398  CLST      87              1.0000000000
       436        88  DCM       C             -11.9003411084        0.0905989564      -10.5602071716  CLST      88              1.0000000000
       437        88  DCM       H1            -12.4139930399        1.0605462575      -10.3876410204  CLST      88              1.0000000000
       438        88  DCM       H2            -12.5718827196       -0.6337563194      -11.0687800359  CLST      88              1.0000000000
       439        88  DCM       CL1           -10.4608580436        0.3706960411      -11.5826855776  CLST      88              1.0000000000
       440        88  DCM       CL2           -11.4023993440       -0.5885456071       -8.9844014043  CLST      88              1.0000000000
       441        89  DCM       C               8.9125538041       -8.4698847403        6.1999267920  CLST      89              1.0000000000
       442        89  DCM       H1              9.4965665073       -9.2078615421        5.6109236081  CLST      89              1.0000000000
       443        89  DCM       H2              8.4683399357       -8.9409318059        7.1023387928  CLST      89              1.0000000000
       444        89  DCM       CL1             9.9986307929       -7.1477293907        6.7111844889  CLST      89              1.0000000000
       445        89  DCM       CL2             7.6013894972       -7.8121548066        5.1782618877  CLST      89              1.0000000000
       446        90  DCM       C             -10.5146101840        1.4715791844       -5.5602526262  CLST      90              1.0000000000
       447        90  DCM       H1            -10.8743018456        1.0326406822       -4.6057804175  CLST      90              1.0000000000
       448        90  DCM       H2            -11.3395116236        1.5572138720       -6.2989698897  CLST      90              1.0000000000
       449        90  DCM       CL1            -9.8519241286        3.1006685870       -5.2375493500  CLST      90              1.0000000000
       450        90  DCM       CL2            -9.2385773254        0.4206985815       -6.2391432779  CLST      90              1.0000000000
       451        91  DCM       C               5.6953832988        2.8033311867       -3.5638643497  CLST      91              1.0000000000
       452        91  DCM       H1              5.9203356294        1.7173768479       -3.5138820773  CLST      91              1.0000000000
       453        91  DCM       H2              6.1964943890        3.2755137687       -4.4340570369  CLST      91              1.0000000000
       454        91  DCM       CL1             3.9326581750        3.0188368128       -3.7316717897  CLST      91              1.0000000000
       455        91  DCM       CL2             6.2622780151        3.5871294582       -2.0593495641  CLST      91              1.0000000000
       456        92  DCM       C              11.9192236533      -11.3683800139        0.6434031015  CLST      92              1.0000000000
       457        92  DCM       H1             10.8462462173      -11.6227177117        0.7761374894  CLST      92              1.0000000000
       458        92  DCM       H2             12.3887168689      -11.0997257285        1.6133171592  CLST      92              1.0000000000
       459        92  DCM       CL1            12.7716647566      -12.7818337805       -0.0432517158  CLST      92              1.0000000000
       460        92  DCM       CL2            12.0528428336       -9.9772338193       -0.4722541577  CLST      92              1.0000000000
       461        93  DCM       C              -2.6740665009        9.9643271101        6.1763923629  CLST      93              1.0000000000
       462        93  DCM       H1             -2.8830688090        8.8871467162        6.0095811702  CLST      93              1.0000000000
       463        93  DCM       H2             -2.5685144186       10.5048721920        5.2119513313  CLST      93              1.0000000000
       464        93  DCM       CL1            -4.0231951182       10.6805836647        7.1046827955  CLST      93              1.0000000000
       465        93  DCM       CL2            -1.1535913079       10.1205627812        7.1002643295  CLST      93              1.0000000000
       466        94  DCM       C              -4.6367747946        1.7920889679       -5.5118411230  CLST      94              1.0000000000
       467        94  DCM       H1             -4.0362989418        2.1157949580       -6.3867404900  CLST      94              1.0000000000
       468        94  DCM       H2             -4.6134828946        0.6885821726       -5.3930464223  CLST      94              1.0000000000
       469        94  DCM       CL1            -3.9772094025        2.5584523962       -4.0392024654  CLST      94              1.0000000000
       470        94  DCM       CL2            -6.3253116166        2.3164234893       -5.7534783822  CLST      94              1.0000000000
       471        95  DCM       C               5.1603081603        6.1278383276       10.7869692179  CLST      95              1.0000000000
       472        95  DCM       H1              5.7138629388        5.6943583230       11.6465291258  CLST      95              1.0000000000
       473        95  DCM       H2              4.5212724383        6.9763804604       11.1078965035  CLST      95              1.0000000000
       474        95  DCM       CL1             6.3377623037        6.7187118731        9.5782834215  CLST      95              1.0000000000
       475        95  DCM       CL2             4.1258510757        4.8598723124       10.0650715598  CLST      95              1.0000000000
