* CHARMM CGENFF SD/ABNR BEFORE MLPOT (MM ONLY)
*  DATE:     6/28/26      1:56: 4      CREATED BY USER: boittier
*
       460  EXT
         1         1  DCM       C               0.6570178051        5.0879046946        8.0387212148  CLST      1               1.0000000000
         2         1  DCM       H1              0.7178563999        4.2571992670        8.7731792768  CLST      1               1.0000000000
         3         1  DCM       H2             -0.3667200987        5.5145270377        8.0028223788  CLST      1               1.0000000000
         4         1  DCM       CL1             1.8017887187        6.3734060303        8.5216090665  CLST      1               1.0000000000
         5         1  DCM       CL2             1.0869836010        4.4648425831        6.4188819033  CLST      1               1.0000000000
         6         2  DCM       C              -3.9123877284       -9.6549363328        2.0022910132  CLST      2               1.0000000000
         7         2  DCM       H1             -4.8811780653       -9.9368116156        2.4667895918  CLST      2               1.0000000000
         8         2  DCM       H2             -3.1212786106      -10.3975517711        2.2386099852  CLST      2               1.0000000000
         9         2  DCM       CL1            -4.1207874344       -9.5742265099        0.2292477637  CLST      2               1.0000000000
        10         2  DCM       CL2            -3.4105626226       -8.0580349813        2.6254186375  CLST      2               1.0000000000
        11         3  DCM       C              -0.3168337185        9.6843698319       -8.3002229709  CLST      3               1.0000000000
        12         3  DCM       H1              0.3834717227       10.3563835303       -8.8399758784  CLST      3               1.0000000000
        13         3  DCM       H2              0.2317937430        8.8597721395       -7.7992567135  CLST      3               1.0000000000
        14         3  DCM       CL1            -1.2001672938       10.6312753855       -7.0680071903  CLST      3               1.0000000000
        15         3  DCM       CL2            -1.4745346010        8.9867567301       -9.4696707905  CLST      3               1.0000000000
        16         4  DCM       C              -6.8832520764       -1.5746045574       10.0995109090  CLST      4               1.0000000000
        17         4  DCM       H1             -7.5999651280       -2.4045318480       10.2770724101  CLST      4               1.0000000000
        18         4  DCM       H2             -7.0302792350       -0.7552609509       10.8343842728  CLST      4               1.0000000000
        19         4  DCM       CL1            -5.2160323742       -2.2021893572       10.2550099226  CLST      4               1.0000000000
        20         4  DCM       CL2            -7.1393767041       -0.9293229804        8.4519273460  CLST      4               1.0000000000
        21         5  DCM       C               7.1210979811        0.0659049973       -0.6955746683  CLST      5               1.0000000000
        22         5  DCM       H1              8.0596806554       -0.4543018064       -0.4064065637  CLST      5               1.0000000000
        23         5  DCM       H2              7.3281845641        1.0919456548       -1.0633376331  CLST      5               1.0000000000
        24         5  DCM       CL1             6.3233870290       -0.8668594894       -1.9936568275  CLST      5               1.0000000000
        25         5  DCM       CL2             6.0450539888        0.1674486137        0.7281403015  CLST      5               1.0000000000
        26         6  DCM       C               8.1513013618        6.7910085330       -5.6893921273  CLST      6               1.0000000000
        27         6  DCM       H1              9.2479755763        6.6391709153       -5.6140572749  CLST      6               1.0000000000
        28         6  DCM       H2              7.9010025172        7.8717331114       -5.7466941168  CLST      6               1.0000000000
        29         6  DCM       CL1             7.5631445436        5.9763223608       -7.1672715151  CLST      6               1.0000000000
        30         6  DCM       CL2             7.3674359062        6.0878281120       -4.2432279669  CLST      6               1.0000000000
        31         7  DCM       C              -2.9938303259       -4.1169922193        5.8073251710  CLST      7               1.0000000000
        32         7  DCM       H1             -2.4626497732       -3.1511435094        5.9170483816  CLST      7               1.0000000000
        33         7  DCM       H2             -3.9338745018       -3.9907184689        5.2306046826  CLST      7               1.0000000000
        34         7  DCM       CL1            -1.9275340088       -5.2631075108        4.9430885662  CLST      7               1.0000000000
        35         7  DCM       CL2            -3.3844951678       -4.7386222202        7.4375028132  CLST      7               1.0000000000
        36         8  DCM       C             -11.5250936837      -11.1785006257        9.8350097639  CLST      8               1.0000000000
        37         8  DCM       H1            -12.4481592103      -11.6761258481        9.4698085008  CLST      8               1.0000000000
        38         8  DCM       H2            -11.0605773205      -10.5649029166        9.0354676829  CLST      8               1.0000000000
        39         8  DCM       CL1           -11.9372181016      -10.1160014805       11.2118595134  CLST      8               1.0000000000
        40         8  DCM       CL2           -10.3563650275      -12.4250818884       10.3591389020  CLST      8               1.0000000000
        41         9  DCM       C               4.9150727830       -5.2618048622       -3.9545490621  CLST      9               1.0000000000
        42         9  DCM       H1              5.2664391250       -6.0613746263       -3.2718521093  CLST      9               1.0000000000
        43         9  DCM       H2              4.0760763687       -5.6200727814       -4.5889051702  CLST      9               1.0000000000
        44         9  DCM       CL1             4.3665307697       -3.8676689445       -2.9836272207  CLST      9               1.0000000000
        45         9  DCM       CL2             6.2637264996       -4.7683954030       -5.0108310711  CLST      9               1.0000000000
        46        10  DCM       C               7.0709374026       -1.3233596371       -5.7852033118  CLST      10              1.0000000000
        47        10  DCM       H1              7.5032918882       -0.3893360885       -5.3735620852  CLST      10              1.0000000000
        48        10  DCM       H2              7.5611897101       -2.2147716888       -5.3426820535  CLST      10              1.0000000000
        49        10  DCM       CL1             5.3239237652       -1.3705749056       -5.4128476686  CLST      10              1.0000000000
        50        10  DCM       CL2             7.3143347068       -1.3426344613       -7.5545675194  CLST      10              1.0000000000
        51        11  DCM       C              -3.7210146566       10.7815163073       -1.4604826624  CLST      11              1.0000000000
        52        11  DCM       H1             -4.4546985921       11.5958450268       -1.6459333771  CLST      11              1.0000000000
        53        11  DCM       H2             -4.2339681962        9.8149758829       -1.2843975670  CLST      11              1.0000000000
        54        11  DCM       CL1            -2.6572848768       10.6244463067       -2.8876510905  CLST      11              1.0000000000
        55        11  DCM       CL2            -2.7477803330       11.1950981268       -0.0198358025  CLST      11              1.0000000000
        56        12  DCM       C              -1.7191547945       -1.3958441547       -0.2329387574  CLST      12              1.0000000000
        57        12  DCM       H1             -1.1147396520       -1.7712566305       -1.0883901224  CLST      12              1.0000000000
        58        12  DCM       H2             -2.7944210331       -1.3775536082       -0.4859295652  CLST      12              1.0000000000
        59        12  DCM       CL1            -1.4806975226       -2.4760336640        1.1668554929  CLST      12              1.0000000000
        60        12  DCM       CL2            -1.1859830070        0.2597889751        0.1632690343  CLST      12              1.0000000000
        61        13  DCM       C              -4.3741287559        1.6928212765       -0.6037273554  CLST      13              1.0000000000
        62        13  DCM       H1             -3.6256697645        1.7110266525       -1.4220030647  CLST      13              1.0000000000
        63        13  DCM       H2             -3.8845301521        1.8507762874        0.3796062425  CLST      13              1.0000000000
        64        13  DCM       CL1            -5.5629907918        2.9986502892       -0.8772942333  CLST      13              1.0000000000
        65        13  DCM       CL2            -5.2015821877        0.1073799768       -0.6019103904  CLST      13              1.0000000000
        66        14  DCM       C             -10.4403242248       -7.4438323483       -7.0028194876  CLST      14              1.0000000000
        67        14  DCM       H1             -9.8864904734       -7.8263183144       -6.1197548224  CLST      14              1.0000000000
        68        14  DCM       H2            -10.4820643324       -6.3355110820       -6.9972979940  CLST      14              1.0000000000
        69        14  DCM       CL1            -9.6137506097       -7.9847549244       -8.4899298083  CLST      14              1.0000000000
        70        14  DCM       CL2           -12.1080751789       -8.0821523371       -6.9715153904  CLST      14              1.0000000000
        71        15  DCM       C             -11.8175531973      -10.2375191039        5.4926597526  CLST      15              1.0000000000
        72        15  DCM       H1            -12.6770673579      -10.7721033946        5.0356448293  CLST      15              1.0000000000
        73        15  DCM       H2            -11.2733664261       -9.6346434952        4.7346185461  CLST      15              1.0000000000
        74        15  DCM       CL1           -12.4239953795       -9.1509259706        6.7768494063  CLST      15              1.0000000000
        75        15  DCM       CL2           -10.6945464716      -11.4375235958        6.1956898142  CLST      15              1.0000000000
        76        16  DCM       C               6.4267822555       -7.8290795333       -0.1011960444  CLST      16              1.0000000000
        77        16  DCM       H1              5.6471222143       -7.0460116765       -0.0045329184  CLST      16              1.0000000000
        78        16  DCM       H2              6.1582585737       -8.7297986704        0.4905855846  CLST      16              1.0000000000
        79        16  DCM       CL1             6.5814289258       -8.2815394344       -1.8223466352  CLST      16              1.0000000000
        80        16  DCM       CL2             7.9812951233       -7.1799896971        0.4957160463  CLST      16              1.0000000000
        81        17  DCM       C              -4.0803930780       -8.4412257193       -4.8238699603  CLST      17              1.0000000000
        82        17  DCM       H1             -5.1454983711       -8.5792700687       -4.5422176173  CLST      17              1.0000000000
        83        17  DCM       H2             -3.4138406146       -9.0456679512       -4.1729829186  CLST      17              1.0000000000
        84        17  DCM       CL1            -3.8586579987       -8.9438202202       -6.5251151429  CLST      17              1.0000000000
        85        17  DCM       CL2            -3.6542036833       -6.7161666864       -4.6466730269  CLST      17              1.0000000000
        86        18  DCM       C              -5.4702347465        0.5884394815       -4.3520960974  CLST      18              1.0000000000
        87        18  DCM       H1             -4.6896883474        0.9603863445       -3.6563874710  CLST      18              1.0000000000
        88        18  DCM       H2             -5.3565380715       -0.4995292160       -4.5362709929  CLST      18              1.0000000000
        89        18  DCM       CL1            -7.0787401585        0.8756856886       -3.6362903637  CLST      18              1.0000000000
        90        18  DCM       CL2            -5.3298069426        1.4536192964       -5.9079110772  CLST      18              1.0000000000
        91        19  DCM       C              -6.0507594119       -8.5276968365       -9.4577872048  CLST      19              1.0000000000
        92        19  DCM       H1             -4.9594231929       -8.6383382460       -9.6294715830  CLST      19              1.0000000000
        93        19  DCM       H2             -6.2704317632       -8.3484062872       -8.3850555185  CLST      19              1.0000000000
        94        19  DCM       CL1            -6.6561715026       -7.1435530343      -10.4128179405  CLST      19              1.0000000000
        95        19  DCM       CL2            -6.8759535651      -10.0277600730       -9.9711306218  CLST      19              1.0000000000
        96        20  DCM       C               0.5721617481        5.7247582580       -8.2088906260  CLST      20              1.0000000000
        97        20  DCM       H1              1.2049571296        4.8448370810       -7.9695058094  CLST      20              1.0000000000
        98        20  DCM       H2              0.7030755931        6.5232646884       -7.4490560569  CLST      20              1.0000000000
        99        20  DCM       CL1             1.0407917413        6.3563114672       -9.8134692732  CLST      20              1.0000000000
       100        20  DCM       CL2            -1.1418489976        5.2213304965       -8.2371686729  CLST      20              1.0000000000
       101        21  DCM       C             -10.6475622995       -5.6403359945       -3.4353341696  CLST      21              1.0000000000
       102        21  DCM       H1            -10.8519678612       -5.1558850959       -2.4570995646  CLST      21              1.0000000000
       103        21  DCM       H2             -9.6321459088       -5.3836885442       -3.8032401972  CLST      21              1.0000000000
       104        21  DCM       CL1           -10.7687948428       -7.4127936715       -3.2456960170  CLST      21              1.0000000000
       105        21  DCM       CL2           -11.8576702011       -5.0809692613       -4.6250292200  CLST      21              1.0000000000
       106        22  DCM       C              -2.2651108205       -1.0440521993        8.2299917618  CLST      22              1.0000000000
       107        22  DCM       H1             -2.2607140235       -2.0768789683        8.6389871535  CLST      22              1.0000000000
       108        22  DCM       H2             -1.3700654122       -0.8591439008        7.5993537803  CLST      22              1.0000000000
       109        22  DCM       CL1            -3.7361022412       -0.8196192647        7.2393519251  CLST      22              1.0000000000
       110        22  DCM       CL2            -2.2681563134        0.1164368392        9.5891084809  CLST      22              1.0000000000
       111        23  DCM       C              -2.8154527447       -0.2882978789        3.7460709089  CLST      23              1.0000000000
       112        23  DCM       H1             -3.1888824897        0.5606005370        4.3575266263  CLST      23              1.0000000000
       113        23  DCM       H2             -2.5354447867        0.0413159977        2.7253085468  CLST      23              1.0000000000
       114        23  DCM       CL1            -1.3814242950       -0.9975152148        4.5359187088  CLST      23              1.0000000000
       115        23  DCM       CL2            -4.1013634311       -1.5127354018        3.6104479892  CLST      23              1.0000000000
       116        24  DCM       C              -8.1966696953        7.2209745899        3.1698176211  CLST      24              1.0000000000
       117        24  DCM       H1             -8.0779151730        8.3085337239        2.9778882057  CLST      24              1.0000000000
       118        24  DCM       H2             -9.1567559441        7.0085585567        3.6851199274  CLST      24              1.0000000000
       119        24  DCM       CL1            -8.1706948726        6.3490560301        1.6079363627  CLST      24              1.0000000000
       120        24  DCM       CL2            -6.8463176075        6.6687952917        4.2040356544  CLST      24              1.0000000000
       121        25  DCM       C              -8.2814297304        3.2813281534       -7.2927881839  CLST      25              1.0000000000
       122        25  DCM       H1             -8.8856456256        4.0212174854       -6.7273619903  CLST      25              1.0000000000
       123        25  DCM       H2             -7.9340903084        2.4654313756       -6.6252630349  CLST      25              1.0000000000
       124        25  DCM       CL1            -9.2850647178        2.5797838901       -8.5939367369  CLST      25              1.0000000000
       125        25  DCM       CL2            -6.8615374649        4.1062300701       -7.9980345048  CLST      25              1.0000000000
       126        26  DCM       C               3.7990070772        0.1767762045       10.9451861128  CLST      26              1.0000000000
       127        26  DCM       H1              3.5791841571       -0.3517647782       11.8966805648  CLST      26              1.0000000000
       128        26  DCM       H2              3.0942236690        1.0201743296       10.7834680021  CLST      26              1.0000000000
       129        26  DCM       CL1             5.4683781336        0.8138377341       11.0081067920  CLST      26              1.0000000000
       130        26  DCM       CL2             3.6445448233       -0.9787741994        9.5904032841  CLST      26              1.0000000000
       131        27  DCM       C              -7.1115898904       -4.8261561888        8.2241479712  CLST      27              1.0000000000
       132        27  DCM       H1             -6.4907299581       -3.9145934024        8.0956571976  CLST      27              1.0000000000
       133        27  DCM       H2             -6.8383095556       -5.5974854261        7.4771545315  CLST      27              1.0000000000
       134        27  DCM       CL1            -6.8488896400       -5.4848440976        9.8641433864  CLST      27              1.0000000000
       135        27  DCM       CL2            -8.8334787016       -4.4008175586        8.0063623346  CLST      27              1.0000000000
       136        28  DCM       C              -1.4164437271       -6.2313506635        0.1072623732  CLST      28              1.0000000000
       137        28  DCM       H1             -0.8385728214       -5.3331464149       -0.1979815367  CLST      28              1.0000000000
       138        28  DCM       H2             -2.1933810163       -5.9676854225        0.8535387176  CLST      28              1.0000000000
       139        28  DCM       CL1            -2.2053486586       -6.9420960855       -1.3292199354  CLST      28              1.0000000000
       140        28  DCM       CL2            -0.3028400828       -7.4286566531        0.8253463777  CLST      28              1.0000000000
       141        29  DCM       C               2.1908006356       -1.1304041087       -0.9717565704  CLST      29              1.0000000000
       142        29  DCM       H1              1.4473655145       -0.4666432090       -1.4629408767  CLST      29              1.0000000000
       143        29  DCM       H2              3.1630985728       -1.1049028651       -1.5056341646  CLST      29              1.0000000000
       144        29  DCM       CL1             2.4298617388       -0.5735908115        0.7084927201  CLST      29              1.0000000000
       145        29  DCM       CL2             1.5719941564       -2.8077830821       -0.9729686355  CLST      29              1.0000000000
       146        30  DCM       C              -6.9446380909       -2.7132870173       -2.8603396655  CLST      30              1.0000000000
       147        30  DCM       H1             -7.5012714177       -2.0317794911       -3.5361478732  CLST      30              1.0000000000
       148        30  DCM       H2             -6.1909332616       -2.1580682233       -2.2635805178  CLST      30              1.0000000000
       149        30  DCM       CL1            -8.0973361515       -3.5094844786       -1.7511955881  CLST      30              1.0000000000
       150        30  DCM       CL2            -6.1093225311       -3.9444718988       -3.8458580479  CLST      30              1.0000000000
       151        31  DCM       C               4.0544666002        7.0155038860       -1.9733602914  CLST      31              1.0000000000
       152        31  DCM       H1              4.0495648885        8.1269251377       -1.9855222887  CLST      31              1.0000000000
       153        31  DCM       H2              4.7689412006        6.6099406596       -2.7196489268  CLST      31              1.0000000000
       154        31  DCM       CL1             2.4140491484        6.4253900869       -2.3627826090  CLST      31              1.0000000000
       155        31  DCM       CL2             4.5344930384        6.4491145712       -0.3476264486  CLST      31              1.0000000000
       156        32  DCM       C              -0.5223095794        4.5401993371       -1.3747164179  CLST      32              1.0000000000
       157        32  DCM       H1             -0.7479572484        4.4531817402       -2.4573827989  CLST      32              1.0000000000
       158        32  DCM       H2             -0.0378216833        5.5110915344       -1.1470289049  CLST      32              1.0000000000
       159        32  DCM       CL1            -2.0443423448        4.4297004761       -0.4502470698  CLST      32              1.0000000000
       160        32  DCM       CL2             0.5723200518        3.2120947585       -0.8948979767  CLST      32              1.0000000000
       161        33  DCM       C               5.0829298631       -3.2833995774        0.5813438768  CLST      33              1.0000000000
       162        33  DCM       H1              4.7170375151       -2.6160720933       -0.2258271278  CLST      33              1.0000000000
       163        33  DCM       H2              5.0039387978       -2.7884067706        1.5710215816  CLST      33              1.0000000000
       164        33  DCM       CL1             4.1005374539       -4.7726956161        0.5902531213  CLST      33              1.0000000000
       165        33  DCM       CL2             6.7919101173       -3.6917253637        0.2685655875  CLST      33              1.0000000000
       166        34  DCM       C               1.5840969091       -2.5996488156       -4.9280265779  CLST      34              1.0000000000
       167        34  DCM       H1              1.5337991512       -3.3813909552       -4.1419706431  CLST      34              1.0000000000
       168        34  DCM       H2              2.6351091974       -2.4030755677       -5.2267748156  CLST      34              1.0000000000
       169        34  DCM       CL1             0.6710165883       -3.1504091912       -6.3605643280  CLST      34              1.0000000000
       170        34  DCM       CL2             0.8620759880       -1.0922248888       -4.2984690559  CLST      34              1.0000000000
       171        35  DCM       C              -3.6557473450        7.6140515686       -6.9803932937  CLST      35              1.0000000000
       172        35  DCM       H1             -4.0374562389        7.7584946956       -8.0132195482  CLST      35              1.0000000000
       173        35  DCM       H2             -2.5461070590        7.6404684740       -6.9592744926  CLST      35              1.0000000000
       174        35  DCM       CL1            -4.2851719746        8.9201813367       -5.9360826810  CLST      35              1.0000000000
       175        35  DCM       CL2            -4.2081556748        6.0276099711       -6.3725419706  CLST      35              1.0000000000
       176        36  DCM       C               5.8157223291       -9.5322995646        6.1812809995  CLST      36              1.0000000000
       177        36  DCM       H1              6.3644692598       -8.5863173852        5.9866623566  CLST      36              1.0000000000
       178        36  DCM       H2              6.2594239751      -10.0819677500        7.0380152536  CLST      36              1.0000000000
       179        36  DCM       CL1             4.1114395546       -9.1464094130        6.5584957650  CLST      36              1.0000000000
       180        36  DCM       CL2             5.8959466806      -10.5647813544        4.7231614928  CLST      36              1.0000000000
       181        37  DCM       C               5.2982299959        2.2079847937       -6.7319786022  CLST      37              1.0000000000
       182        37  DCM       H1              5.4662563988        1.3480399257       -6.0532861141  CLST      37              1.0000000000
       183        37  DCM       H2              4.3775279659        2.0695173794       -7.3365728154  CLST      37              1.0000000000
       184        37  DCM       CL1             5.1337680829        3.6868334087       -5.7441706654  CLST      37              1.0000000000
       185        37  DCM       CL2             6.6964842356        2.3587554986       -7.8337762263  CLST      37              1.0000000000
       186        38  DCM       C               1.2213671876        0.8260854372        6.5795981887  CLST      38              1.0000000000
       187        38  DCM       H1              0.2823689158        0.9736185521        6.0078536831  CLST      38              1.0000000000
       188        38  DCM       H2              2.0408778890        1.4444960085        6.1565486124  CLST      38              1.0000000000
       189        38  DCM       CL1             1.6844574951       -0.8960491931        6.4960423561  CLST      38              1.0000000000
       190        38  DCM       CL2             0.9475963603        1.2922405832        8.2828080471  CLST      38              1.0000000000
       191        39  DCM       C               0.5021436540        9.4877471484        6.4184925029  CLST      39              1.0000000000
       192        39  DCM       H1              0.5842886984       10.3228798681        5.6914326017  CLST      39              1.0000000000
       193        39  DCM       H2              1.2957686567        9.5490966900        7.1932274719  CLST      39              1.0000000000
       194        39  DCM       CL1            -1.0958340547        9.5621267726        7.2145738596  CLST      39              1.0000000000
       195        39  DCM       CL2             0.6673510103        7.9411710912        5.5419211224  CLST      39              1.0000000000
       196        40  DCM       C              -6.4621807534        3.2339747189        2.7979292370  CLST      40              1.0000000000
       197        40  DCM       H1             -6.6695766115        3.6171865536        1.7770910693  CLST      40              1.0000000000
       198        40  DCM       H2             -5.7452821789        3.8940097310        3.3303723561  CLST      40              1.0000000000
       199        40  DCM       CL1            -7.9933907676        3.1750070403        3.7173222968  CLST      40              1.0000000000
       200        40  DCM       CL2            -5.7667321566        1.5919479970        2.6841947885  CLST      40              1.0000000000
       201        41  DCM       C              -4.0485929357        7.7686996043        1.2061789789  CLST      41              1.0000000000
       202        41  DCM       H1             -3.2743413367        8.0296988747        1.9556374382  CLST      41              1.0000000000
       203        41  DCM       H2             -3.6499013548        7.8695074628        0.1769688900  CLST      41              1.0000000000
       204        41  DCM       CL1            -4.5681167890        6.0768706611        1.4606200450  CLST      41              1.0000000000
       205        41  DCM       CL2            -5.4376446563        8.8761464257        1.3971027873  CLST      41              1.0000000000
       206        42  DCM       C              -2.3871939461       -3.2149896642       -4.1054538318  CLST      42              1.0000000000
       207        42  DCM       H1             -1.8746332801       -2.9533827220       -5.0537524943  CLST      42              1.0000000000
       208        42  DCM       H2             -3.2215478689       -3.9214474986       -4.2891827245  CLST      42              1.0000000000
       209        42  DCM       CL1            -1.2130076165       -3.9748588490       -2.9970742614  CLST      42              1.0000000000
       210        42  DCM       CL2            -3.0407578374       -1.7264468963       -3.3685545360  CLST      42              1.0000000000
       211        43  DCM       C             -10.4767006372       -1.7213063321       -4.0559900520  CLST      43              1.0000000000
       212        43  DCM       H1             -9.8573130110       -2.6270674443       -4.2251624998  CLST      43              1.0000000000
       213        43  DCM       H2             -9.8393509290       -0.8308675719       -3.8775139886  CLST      43              1.0000000000
       214        43  DCM       CL1           -11.4923450368       -1.4397854502       -5.4996113035  CLST      43              1.0000000000
       215        43  DCM       CL2           -11.5142015185       -1.9930310903       -2.6269847572  CLST      43              1.0000000000
       216        44  DCM       C              -7.2999207713       -5.0938623393       -7.0912554262  CLST      44              1.0000000000
       217        44  DCM       H1             -7.5557643858       -5.3535503834       -8.1398149209  CLST      44              1.0000000000
       218        44  DCM       H2             -6.3888942468       -4.4613396429       -7.0490856499  CLST      44              1.0000000000
       219        44  DCM       CL1            -8.6590476909       -4.1962745969       -6.3613368828  CLST      44              1.0000000000
       220        44  DCM       CL2            -7.0098210817       -6.5949268240       -6.1693867685  CLST      44              1.0000000000
       221        45  DCM       C              11.0528749848        6.4172894816        0.5324432255  CLST      45              1.0000000000
       222        45  DCM       H1             12.0371113913        6.8885714877        0.3265091022  CLST      45              1.0000000000
       223        45  DCM       H2             10.9647933051        6.1273200442        1.6012002560  CLST      45              1.0000000000
       224        45  DCM       CL1             9.7545653340        7.5822019305        0.1386612861  CLST      45              1.0000000000
       225        45  DCM       CL2            10.8823419023        4.9550724395       -0.4831794363  CLST      45              1.0000000000
       226        46  DCM       C               3.7218055921       -1.2556431351       -8.7919893357  CLST      46              1.0000000000
       227        46  DCM       H1              4.4333395385       -1.8476951532       -8.1814779207  CLST      46              1.0000000000
       228        46  DCM       H2              3.1151020734       -1.9133389206       -9.4490201456  CLST      46              1.0000000000
       229        46  DCM       CL1             2.6320602265       -0.3630397036       -7.6955952533  CLST      46              1.0000000000
       230        46  DCM       CL2             4.6467875563       -0.1081818904       -9.8023007527  CLST      46              1.0000000000
       231        47  DCM       C               1.2921480336       -6.6952733781       -2.4312949764  CLST      47              1.0000000000
       232        47  DCM       H1              0.5605683658       -7.5037270639       -2.2183492491  CLST      47              1.0000000000
       233        47  DCM       H2              1.0198583751       -5.7598173298       -1.8991236616  CLST      47              1.0000000000
       234        47  DCM       CL1             2.9065409593       -7.2242683057       -1.8818436271  CLST      47              1.0000000000
       235        47  DCM       CL2             1.3159404927       -6.3852693438       -4.1914649952  CLST      47              1.0000000000
       236        48  DCM       C             -11.4406552513       -4.8306326985       -9.6643129582  CLST      48              1.0000000000
       237        48  DCM       H1            -12.0327509856       -4.4260966588      -10.5122046462  CLST      48              1.0000000000
       238        48  DCM       H2            -11.6586132827       -5.9079233116       -9.5034282594  CLST      48              1.0000000000
       239        48  DCM       CL1            -9.7011808785       -4.6332307525      -10.0244065013  CLST      48              1.0000000000
       240        48  DCM       CL2           -11.8563038879       -3.9244279276       -8.1814337000  CLST      48              1.0000000000
       241        49  DCM       C              -0.4463356784        3.1292801696        2.8992135076  CLST      49              1.0000000000
       242        49  DCM       H1             -0.2825644992        3.7088859898        3.8292029317  CLST      49              1.0000000000
       243        49  DCM       H2             -0.0612118643        3.6754404475        2.0114517663  CLST      49              1.0000000000
       244        49  DCM       CL1             0.4157516468        1.5716201519        3.0355211051  CLST      49              1.0000000000
       245        49  DCM       CL2            -2.1992425824        2.8560211715        2.6869185924  CLST      49              1.0000000000
       246        50  DCM       C              -3.6586998323        2.8323081189        7.2268708676  CLST      50              1.0000000000
       247        50  DCM       H1             -3.8042646710        2.0666165451        8.0171488985  CLST      50              1.0000000000
       248        50  DCM       H2             -3.6888873001        3.8559078458        7.6554344557  CLST      50              1.0000000000
       249        50  DCM       CL1            -4.9638517426        2.6687824447        6.0202237827  CLST      50              1.0000000000
       250        50  DCM       CL2            -2.0762778439        2.5711543282        6.4385386187  CLST      50              1.0000000000
       251        51  DCM       C              -8.9476149458      -11.0512219854       -6.4158424073  CLST      51              1.0000000000
       252        51  DCM       H1             -9.4398272399      -10.7506930357       -7.3650569048  CLST      51              1.0000000000
       253        51  DCM       H2             -8.7506955523      -12.1438834364       -6.3972108354  CLST      51              1.0000000000
       254        51  DCM       CL1            -7.3957041436      -10.1784899089       -6.2609915461  CLST      51              1.0000000000
       255        51  DCM       CL2           -10.0163487204      -10.6302527233       -5.0464109256  CLST      51              1.0000000000
       256        52  DCM       C               4.2052783581       -5.0170008839       -9.1190206032  CLST      52              1.0000000000
       257        52  DCM       H1              3.4145007742       -4.7050827308       -9.8332762055  CLST      52              1.0000000000
       258        52  DCM       H2              4.3857081058       -6.1104554384       -9.1791823679  CLST      52              1.0000000000
       259        52  DCM       CL1             5.7227415320       -4.1572398339       -9.5100986885  CLST      52              1.0000000000
       260        52  DCM       CL2             3.6873364993       -4.6047780463       -7.4592752703  CLST      52              1.0000000000
       261        53  DCM       C              -5.1492704833        7.3234491514       -2.9271610163  CLST      53              1.0000000000
       262        53  DCM       H1             -5.4032264079        6.7078431795       -3.8146734558  CLST      53              1.0000000000
       263        53  DCM       H2             -5.3209499944        8.4013141116       -3.1272596332  CLST      53              1.0000000000
       264        53  DCM       CL1            -6.1734532615        6.8135330415       -1.5597578781  CLST      53              1.0000000000
       265        53  DCM       CL2            -3.4317468151        7.0713596866       -2.5195493683  CLST      53              1.0000000000
       266        54  DCM       C              11.0547178064        7.3248058518       -3.2565840788  CLST      54              1.0000000000
       267        54  DCM       H1             11.7363787940        7.4479313271       -2.3890648977  CLST      54              1.0000000000
       268        54  DCM       H2             10.3512785016        6.4806377629       -3.0935045368  CLST      54              1.0000000000
       269        54  DCM       CL1            10.1135199746        8.8287181066       -3.4743618867  CLST      54              1.0000000000
       270        54  DCM       CL2            12.0305384498        7.0007629147       -4.7187521204  CLST      54              1.0000000000
       271        55  DCM       C               8.7421124046       -5.3576100724       -7.7222000175  CLST      55              1.0000000000
       272        55  DCM       H1              8.9782973089       -5.1594370623       -8.7891128323  CLST      55              1.0000000000
       273        55  DCM       H2              7.6484290011       -5.2993057385       -7.5414832088  CLST      55              1.0000000000
       274        55  DCM       CL1             9.3159403867       -6.9944782604       -7.2896171697  CLST      55              1.0000000000
       275        55  DCM       CL2             9.5638704355       -4.1390062816       -6.7053632454  CLST      55              1.0000000000
       276        56  DCM       C               4.8558412354       -5.6963539427        3.9266931370  CLST      56              1.0000000000
       277        56  DCM       H1              3.8205708201       -5.8754509389        3.5665727770  CLST      56              1.0000000000
       278        56  DCM       H2              5.2743892121       -4.7694554936        3.4827984529  CLST      56              1.0000000000
       279        56  DCM       CL1             4.8351936379       -5.5304194606        5.7053509646  CLST      56              1.0000000000
       280        56  DCM       CL2             5.8875066609       -7.0765690098        3.4582625309  CLST      56              1.0000000000
       281        57  DCM       C               4.0358177534        7.3183890544       -6.1904938499  CLST      57              1.0000000000
       282        57  DCM       H1              3.2359214538        6.7739262146       -5.6444223840  CLST      57              1.0000000000
       283        57  DCM       H2              4.8200813341        6.6175224037       -6.5440102579  CLST      57              1.0000000000
       284        57  DCM       CL1             4.7781821338        8.5209332400       -5.0971581913  CLST      57              1.0000000000
       285        57  DCM       CL2             3.3232282622        8.1519645505       -7.6017965655  CLST      57              1.0000000000
       286        58  DCM       C               2.5498072279       -8.9634394517        3.0751290837  CLST      58              1.0000000000
       287        58  DCM       H1              1.9093713042       -9.8365010167        2.8299257527  CLST      58              1.0000000000
       288        58  DCM       H2              3.4368092536       -9.2707962914        3.6666417837  CLST      58              1.0000000000
       289        58  DCM       CL1             3.1080417381       -8.2067156970        1.5557639086  CLST      58              1.0000000000
       290        58  DCM       CL2             1.5952804378       -7.7898537611        4.0285437380  CLST      58              1.0000000000
       291        59  DCM       C              -7.7290143743       -3.3169922291        3.8017912182  CLST      59              1.0000000000
       292        59  DCM       H1             -7.2787394556       -4.2253132367        3.3492506274  CLST      59              1.0000000000
       293        59  DCM       H2             -8.7906306003       -3.4931568304        4.0775798237  CLST      59              1.0000000000
       294        59  DCM       CL1            -6.8114134147       -2.8987293402        5.2761264625  CLST      59              1.0000000000
       295        59  DCM       CL2            -7.6466306125       -1.9716634707        2.6250208447  CLST      59              1.0000000000
       296        60  DCM       C              -8.7584203022       -7.8947944871        5.8106872210  CLST      60              1.0000000000
       297        60  DCM       H1             -9.6707003424       -8.2862757647        6.3054649102  CLST      60              1.0000000000
       298        60  DCM       H2             -8.0248577018       -7.5411587691        6.5649818565  CLST      60              1.0000000000
       299        60  DCM       CL1            -8.0170157812       -9.2008587664        4.8411071122  CLST      60              1.0000000000
       300        60  DCM       CL2            -9.2100677142       -6.5298218581        4.7500141567  CLST      60              1.0000000000
       301        61  DCM       C               8.2182130745       -2.5712123535        3.4644074050  CLST      61              1.0000000000
       302        61  DCM       H1              8.3781434981       -2.2201593821        2.4230659242  CLST      61              1.0000000000
       303        61  DCM       H2              8.9767525513       -2.1427834342        4.1529073433  CLST      61              1.0000000000
       304        61  DCM       CL1             6.5918520921       -2.0632886280        4.0038329791  CLST      61              1.0000000000
       305        61  DCM       CL2             8.3424418776       -4.3541090274        3.5032048537  CLST      61              1.0000000000
       306        62  DCM       C              -3.6097055079       -5.7167119184       -8.2952061512  CLST      62              1.0000000000
       307        62  DCM       H1             -4.3557873291       -6.0512917845       -7.5438629333  CLST      62              1.0000000000
       308        62  DCM       H2             -3.2201774729       -6.5768327159       -8.8798247771  CLST      62              1.0000000000
       309        62  DCM       CL1            -2.2495161023       -4.9273058110       -7.4483712888  CLST      62              1.0000000000
       310        62  DCM       CL2            -4.3843731394       -4.5548324089       -9.4099651615  CLST      62              1.0000000000
       311        63  DCM       C              -7.7214016271        7.4279165931       -6.2897652471  CLST      63              1.0000000000
       312        63  DCM       H1             -7.2077084876        8.0385552371       -7.0619951531  CLST      63              1.0000000000
       313        63  DCM       H2             -7.1313035181        6.5209719102       -6.0433485174  CLST      63              1.0000000000
       314        63  DCM       CL1            -7.9253185890        8.4079574101       -4.8092136720  CLST      63              1.0000000000
       315        63  DCM       CL2            -9.3205239879        6.9260294882       -6.9093081570  CLST      63              1.0000000000
       316        64  DCM       C              -7.3748751800       -7.3763269577       -2.3677063017  CLST      64              1.0000000000
       317        64  DCM       H1             -7.5697496250       -6.8014232351       -3.2964491447  CLST      64              1.0000000000
       318        64  DCM       H2             -8.1417544702       -7.1602011260       -1.5948981462  CLST      64              1.0000000000
       319        64  DCM       CL1            -7.4064855806       -9.1228396581       -2.7408972334  CLST      64              1.0000000000
       320        64  DCM       CL2            -5.7698076133       -6.9246877766       -1.7349093757  CLST      64              1.0000000000
       321        65  DCM       C               8.9524678057        2.8356762603       -5.1073083923  CLST      65              1.0000000000
       322        65  DCM       H1              9.3636868212        2.1174783655       -5.8476925587  CLST      65              1.0000000000
       323        65  DCM       H2              8.2783391487        3.5692406307       -5.5962847869  CLST      65              1.0000000000
       324        65  DCM       CL1             8.0257490662        1.9366729769       -3.8738550117  CLST      65              1.0000000000
       325        65  DCM       CL2            10.2997489059        3.7141811941       -4.3289404071  CLST      65              1.0000000000
       326        66  DCM       C              -2.1981232354        2.8255976230       -4.5198464141  CLST      66              1.0000000000
       327        66  DCM       H1             -2.5918607072        2.3534742140       -5.4441072945  CLST      66              1.0000000000
       328        66  DCM       H2             -1.3702741459        3.5252829650       -4.7572848245  CLST      66              1.0000000000
       329        66  DCM       CL1            -3.5087659424        3.7352189780       -3.7203628926  CLST      66              1.0000000000
       330        66  DCM       CL2            -1.5884625844        1.5529181274       -3.4239220548  CLST      66              1.0000000000
       331        67  DCM       C              -8.4055605641       -9.0050639156        9.7999586882  CLST      67              1.0000000000
       332        67  DCM       H1             -7.4764516793       -8.4456230155       10.0387741471  CLST      67              1.0000000000
       333        67  DCM       H2             -8.7790874593       -9.5578386293       10.6881738609  CLST      67              1.0000000000
       334        67  DCM       CL1            -9.6609768288       -7.8506010030        9.2643839016  CLST      67              1.0000000000
       335        67  DCM       CL2            -8.0594679242      -10.1729812257        8.4921070563  CLST      67              1.0000000000
       336        68  DCM       C               4.6326963817        2.3285968049        7.7378517067  CLST      68              1.0000000000
       337        68  DCM       H1              4.0724200736        1.3698575670        7.7357423867  CLST      68              1.0000000000
       338        68  DCM       H2              5.6956917846        2.1667067843        8.0165006429  CLST      68              1.0000000000
       339        68  DCM       CL1             4.5587463290        3.0507210558        6.1050390147  CLST      68              1.0000000000
       340        68  DCM       CL2             3.8848870316        3.4384887915        8.9217731274  CLST      68              1.0000000000
       341        69  DCM       C               4.4140137334        6.7379027141        5.9826849720  CLST      69              1.0000000000
       342        69  DCM       H1              3.4325149734        6.2543644584        5.7900985481  CLST      69              1.0000000000
       343        69  DCM       H2              4.8902877700        6.3149461435        6.8919932035  CLST      69              1.0000000000
       344        69  DCM       CL1             5.4846249955        6.4645628793        4.5772982919  CLST      69              1.0000000000
       345        69  DCM       CL2             4.1621898159        8.4922314459        6.2138559325  CLST      69              1.0000000000
       346        70  DCM       C              -8.6112523822       -1.2022594820       -8.3766211741  CLST      70              1.0000000000
       347        70  DCM       H1             -8.9129259128       -0.3255127754       -8.9857398695  CLST      70              1.0000000000
       348        70  DCM       H2             -9.4459296899       -1.9307470962       -8.2853953937  CLST      70              1.0000000000
       349        70  DCM       CL1            -7.2211327774       -2.0046667112       -9.1630875617  CLST      70              1.0000000000
       350        70  DCM       CL2            -8.1441017006       -0.6478126890       -6.7430433280  CLST      70              1.0000000000
       351        71  DCM       C               7.9350856516       -8.9991584737      -10.2353798830  CLST      71              1.0000000000
       352        71  DCM       H1              8.9042392534       -8.7983838123       -9.7316427225  CLST      71              1.0000000000
       353        71  DCM       H2              8.0912646395       -9.4575841934      -11.2346819048  CLST      71              1.0000000000
       354        71  DCM       CL1             6.9769787025      -10.1212479492       -9.2250610438  CLST      71              1.0000000000
       355        71  DCM       CL2             7.0543833319       -7.4562243055      -10.4363485877  CLST      71              1.0000000000
       356        72  DCM       C               2.1091588750        5.7086705218        3.0268311828  CLST      72              1.0000000000
       357        72  DCM       H1              1.2677468651        5.5957281927        3.7407104788  CLST      72              1.0000000000
       358        72  DCM       H2              2.7825544674        6.5333338113        3.3369333003  CLST      72              1.0000000000
       359        72  DCM       CL1             3.0372037770        4.1836159749        2.9660338075  CLST      72              1.0000000000
       360        72  DCM       CL2             1.4481080495        6.0746521807        1.4113500004  CLST      72              1.0000000000
       361        73  DCM       C              -0.5945552089        8.0760839681       -4.3200352249  CLST      73              1.0000000000
       362        73  DCM       H1             -0.6085802193        8.1391852036       -3.2118223928  CLST      73              1.0000000000
       363        73  DCM       H2             -1.3971973185        8.7002013953       -4.7644937583  CLST      73              1.0000000000
       364        73  DCM       CL1             0.9883826019        8.6471869018       -4.9123396716  CLST      73              1.0000000000
       365        73  DCM       CL2            -0.8448246686        6.3784404861       -4.8047674629  CLST      73              1.0000000000
       366        74  DCM       C               1.4453019205        2.3280312039       -5.5121355138  CLST      74              1.0000000000
       367        74  DCM       H1              2.4155326607        1.9021567044       -5.8418465497  CLST      74              1.0000000000
       368        74  DCM       H2              1.0531308118        1.7792734072       -4.6300942935  CLST      74              1.0000000000
       369        74  DCM       CL1             1.6820725296        4.0401283223       -5.0669038113  CLST      74              1.0000000000
       370        74  DCM       CL2             0.2687019668        2.1997455709       -6.8485369438  CLST      74              1.0000000000
       371        75  DCM       C              -7.0095994388       -7.3109988834        1.6401709210  CLST      75              1.0000000000
       372        75  DCM       H1             -6.0076801089       -7.1673900009        1.1828975892  CLST      75              1.0000000000
       373        75  DCM       H2             -6.9429446640       -7.3172918607        2.7469010111  CLST      75              1.0000000000
       374        75  DCM       CL1            -8.0854363059       -5.9775971616        1.1307279184  CLST      75              1.0000000000
       375        75  DCM       CL2            -7.6818146693       -8.8732844814        1.0932232509  CLST      75              1.0000000000
       376        76  DCM       C              -3.4906511889       -1.2629814009       -7.6937141340  CLST      76              1.0000000000
       377        76  DCM       H1             -2.9956509045       -1.9479826852       -8.4143429853  CLST      76              1.0000000000
       378        76  DCM       H2             -4.0717804189       -0.4773529651       -8.2217636546  CLST      76              1.0000000000
       379        76  DCM       CL1            -2.2402161699       -0.4831024273       -6.6813427180  CLST      76              1.0000000000
       380        76  DCM       CL2            -4.6030693376       -2.2096119291       -6.6645436473  CLST      76              1.0000000000
       381        77  DCM       C              -4.6605206437       -7.8566190092        5.9108889509  CLST      77              1.0000000000
       382        77  DCM       H1             -4.8602995817       -8.7994918160        5.3593876150  CLST      77              1.0000000000
       383        77  DCM       H2             -3.5743244623       -7.6245573927        5.9247539500  CLST      77              1.0000000000
       384        77  DCM       CL1            -5.5299214606       -6.5170946814        5.1063486716  CLST      77              1.0000000000
       385        77  DCM       CL2            -5.2371692973       -8.0355827021        7.5926468866  CLST      77              1.0000000000
       386        78  DCM       C              -3.0319264157        5.8975229313        4.6462097475  CLST      78              1.0000000000
       387        78  DCM       H1             -3.9064699028        6.5110227271        4.3473247676  CLST      78              1.0000000000
       388        78  DCM       H2             -3.2623705771        4.8144940193        4.5694115749  CLST      78              1.0000000000
       389        78  DCM       CL1            -1.6590326332        6.2862419991        3.5706751938  CLST      78              1.0000000000
       390        78  DCM       CL2            -2.6047527934        6.2861597981        6.3354491935  CLST      78              1.0000000000
       391        79  DCM       C               3.9059256919        3.6937118250      -10.2245993346  CLST      79              1.0000000000
       392        79  DCM       H1              3.6416036360        4.1686055778      -11.1932953870  CLST      79              1.0000000000
       393        79  DCM       H2              4.7585342915        2.9915931805      -10.3407736278  CLST      79              1.0000000000
       394        79  DCM       CL1             4.3577371632        4.9687360947       -9.0578829716  CLST      79              1.0000000000
       395        79  DCM       CL2             2.4883013707        2.7934489199       -9.6153113774  CLST      79              1.0000000000
       396        80  DCM       C               0.6395339786        9.2922498265       -0.1182208977  CLST      80              1.0000000000
       397        80  DCM       H1              0.4243638684       10.0280762776        0.6850930755  CLST      80              1.0000000000
       398        80  DCM       H2              1.5307838596        8.6788515565        0.1289118202  CLST      80              1.0000000000
       399        80  DCM       CL1            -0.7726778579        8.2157135528       -0.3148950729  CLST      80              1.0000000000
       400        80  DCM       CL2             0.9535405996       10.1721913999       -1.6396690304  CLST      80              1.0000000000
       401        81  DCM       C              -8.3488060364        4.3106486758       -2.8966289093  CLST      81              1.0000000000
       402        81  DCM       H1             -8.7772912095        3.2886839085       -2.8377094595  CLST      81              1.0000000000
       403        81  DCM       H2             -7.9067162473        4.6040117963       -1.9223478247  CLST      81              1.0000000000
       404        81  DCM       CL1            -7.0771674731        4.3427042154       -4.1507081257  CLST      81              1.0000000000
       405        81  DCM       CL2            -9.6423682521        5.4678961313       -3.3184268811  CLST      81              1.0000000000
       406        82  DCM       C               2.8428859455       -9.2849421084       -8.3764340939  CLST      82              1.0000000000
       407        82  DCM       H1              3.6781231954       -9.6212798474       -7.7264253443  CLST      82              1.0000000000
       408        82  DCM       H2              2.1003167821      -10.0972841621       -8.5233536356  CLST      82              1.0000000000
       409        82  DCM       CL1             2.0326448968       -7.8874208079       -7.6093827193  CLST      82              1.0000000000
       410        82  DCM       CL2             3.5025772556       -8.8048030464       -9.9671750301  CLST      82              1.0000000000
       411        83  DCM       C               1.3062145749       -3.0386948640        3.4112485565  CLST      83              1.0000000000
       412        83  DCM       H1              0.7944155422       -3.1705200834        4.3885076271  CLST      83              1.0000000000
       413        83  DCM       H2              0.8707527518       -2.1938525320        2.8412599365  CLST      83              1.0000000000
       414        83  DCM       CL1             3.0350866538       -2.7002991408        3.6995658221  CLST      83              1.0000000000
       415        83  DCM       CL2             1.1329086771       -4.5403145015        2.4587667833  CLST      83              1.0000000000
       416        84  DCM       C               4.0920686565        9.1865900883        2.2564059433  CLST      84              1.0000000000
       417        84  DCM       H1              4.8758609637        9.5913226597        2.9319866470  CLST      84              1.0000000000
       418        84  DCM       H2              4.2054431197        8.0900845338        2.1278713898  CLST      84              1.0000000000
       419        84  DCM       CL1             2.4860560247        9.5289957938        2.9609320032  CLST      84              1.0000000000
       420        84  DCM       CL2             4.2311531768        9.9766212862        0.6586332636  CLST      84              1.0000000000
       421        85  DCM       C               6.0191659920       -8.4933107100       -5.5377835260  CLST      85              1.0000000000
       422        85  DCM       H1              6.6282233040       -7.8772231834       -4.8447486511  CLST      85              1.0000000000
       423        85  DCM       H2              6.5311249761       -9.4498814764       -5.7777724694  CLST      85              1.0000000000
       424        85  DCM       CL1             4.4398482683       -8.8483607877       -4.7796901782  CLST      85              1.0000000000
       425        85  DCM       CL2             5.7613859313       -7.5795458814       -7.0485827771  CLST      85              1.0000000000
       426        86  DCM       C               3.8168289712        2.6124303688       -2.0527308166  CLST      86              1.0000000000
       427        86  DCM       H1              3.0980514155        3.3876449028       -2.3910449208  CLST      86              1.0000000000
       428        86  DCM       H2              3.5364812810        2.2107505937       -1.0550753031  CLST      86              1.0000000000
       429        86  DCM       CL1             3.8256897245        1.2759553634       -3.2386821089  CLST      86              1.0000000000
       430        86  DCM       CL2             5.4405642221        3.3477791617       -1.9482131769  CLST      86              1.0000000000
       431        87  DCM       C             -11.7718827499        2.2984815862       -5.8081910657  CLST      87              1.0000000000
       432        87  DCM       H1            -12.7000714190        1.9877330111       -5.2837300947  CLST      87              1.0000000000
       433        87  DCM       H2            -11.6611893141        1.7642570828       -6.7755607680  CLST      87              1.0000000000
       434        87  DCM       CL1           -10.3670180598        1.9185799516       -4.7730401983  CLST      87              1.0000000000
       435        87  DCM       CL2           -11.8355499354        4.0581255257       -6.1168010582  CLST      87              1.0000000000
       436        88  DCM       C              -2.8269832726       10.6550480795        3.7879340282  CLST      88              1.0000000000
       437        88  DCM       H1             -3.4163767495       11.0528848562        2.9351515712  CLST      88              1.0000000000
       438        88  DCM       H2             -2.5494529616       11.4640628834        4.4963906595  CLST      88              1.0000000000
       439        88  DCM       CL1            -3.8123466296        9.4418842668        4.6543826020  CLST      88              1.0000000000
       440        88  DCM       CL2            -1.3347572441        9.8951016609        3.1616871033  CLST      88              1.0000000000
       441        89  DCM       C              -5.1020271743       -3.5918888829        0.7257427816  CLST      89              1.0000000000
       442        89  DCM       H1             -4.9248461167       -2.5332457965        1.0086251580  CLST      89              1.0000000000
       443        89  DCM       H2             -6.1804493493       -3.7791964728        0.5427418148  CLST      89              1.0000000000
       444        89  DCM       CL1            -4.1891897439       -3.9535914323       -0.7639267853  CLST      89              1.0000000000
       445        89  DCM       CL2            -4.5430800082       -4.6529511898        2.0499881756  CLST      89              1.0000000000
       446        90  DCM       C              -8.7403589696        9.4671552352       -1.0414985826  CLST      90              1.0000000000
       447        90  DCM       H1             -8.5881888543        8.3681249961       -1.0791325518  CLST      90              1.0000000000
       448        90  DCM       H2             -9.6137663978        9.7687634673       -1.6578827254  CLST      90              1.0000000000
       449        90  DCM       CL1            -9.0261557569        9.9558892981        0.6538811156  CLST      90              1.0000000000
       450        90  DCM       CL2            -7.2788040849       10.2859212412       -1.6662608089  CLST      90              1.0000000000
       451        91  DCM       C              -8.7735664273        1.3479528557        0.4358685601  CLST      91              1.0000000000
       452        91  DCM       H1             -7.6650104193        1.3407328982        0.4663616257  CLST      91              1.0000000000
       453        91  DCM       H2             -9.1992356873        0.9320441945        1.3734165451  CLST      91              1.0000000000
       454        91  DCM       CL1            -9.3373623463        3.0320010676        0.2353170925  CLST      91              1.0000000000
       455        91  DCM       CL2            -9.3161895132        0.3568433907       -0.9480052119  CLST      91              1.0000000000
       456        92  DCM       C               8.6562673541       -5.0717308899       -2.3724636564  CLST      92              1.0000000000
       457        92  DCM       H1              9.2352330424       -5.2234445010       -1.4372034791  CLST      92              1.0000000000
       458        92  DCM       H2              7.5705358789       -5.2258498256       -2.1976387175  CLST      92              1.0000000000
       459        92  DCM       CL1             8.9199733545       -3.4010629557       -2.9529972655  CLST      92              1.0000000000
       460        92  DCM       CL2             9.2165461503       -6.2447457437       -3.5995726563  CLST      92              1.0000000000
