* CHARMM CGENFF SD/ABNR BEFORE MLPOT (MM ONLY)
*  DATE:     6/28/26      2: 2:36      CREATED BY USER: boittier
*
       475  EXT
         1         1  DCM       C              -1.2822236267      -10.6688825570        8.6337466353  CLST      1               1.0000000000
         2         1  DCM       H1             -1.9428959350      -11.2798956131        7.9847350832  CLST      1               1.0000000000
         3         1  DCM       H2             -0.2754603174      -11.1297420910        8.7297537347  CLST      1               1.0000000000
         4         1  DCM       CL1            -1.1095807235       -9.0412663881        7.9152146205  CLST      1               1.0000000000
         5         1  DCM       CL2            -2.0179724565      -10.5390624489       10.2588581584  CLST      1               1.0000000000
         6         2  DCM       C              -5.8721985042        4.5298499458       -6.0937086076  CLST      2               1.0000000000
         7         2  DCM       H1             -5.8031632646        3.4214044624       -6.0995481388  CLST      2               1.0000000000
         8         2  DCM       H2             -5.2399208789        4.9637079746       -5.2933173482  CLST      2               1.0000000000
         9         2  DCM       CL1            -5.3152082459        5.1574031455       -7.6710882752  CLST      2               1.0000000000
        10         2  DCM       CL2            -7.5722572362        5.0050001313       -5.8137821471  CLST      2               1.0000000000
        11         3  DCM       C              11.2879010956      -11.7455740631       -3.4695684142  CLST      3               1.0000000000
        12         3  DCM       H1             10.6812003525      -11.4093469248       -2.6017423084  CLST      3               1.0000000000
        13         3  DCM       H2             11.7719334242      -12.7231606753       -3.2637436751  CLST      3               1.0000000000
        14         3  DCM       CL1            10.2228176777      -11.9154231718       -4.8953931963  CLST      3               1.0000000000
        15         3  DCM       CL2            12.5545494104      -10.5278877427       -3.8023891707  CLST      3               1.0000000000
        16         4  DCM       C               8.6597416483       -6.9417379419       -9.7173633654  CLST      4               1.0000000000
        17         4  DCM       H1              8.8840785144       -6.1763457691      -10.4888370865  CLST      4               1.0000000000
        18         4  DCM       H2              9.5451403379       -7.5802215897       -9.5178181555  CLST      4               1.0000000000
        19         4  DCM       CL1             8.1831118805       -6.1185183010       -8.2043858745  CLST      4               1.0000000000
        20         4  DCM       CL2             7.3132045957       -7.9698159035      -10.2906716186  CLST      4               1.0000000000
        21         5  DCM       C               5.7720040422        7.6090154909       -3.3675532391  CLST      5               1.0000000000
        22         5  DCM       H1              5.5830577807        6.8027402029       -4.1067980640  CLST      5               1.0000000000
        23         5  DCM       H2              6.4422454317        7.2546891063       -2.5563191854  CLST      5               1.0000000000
        24         5  DCM       CL1             4.2149489325        8.1216685787       -2.6536034254  CLST      5               1.0000000000
        25         5  DCM       CL2             6.5406379516        8.9925007122       -4.1991733222  CLST      5               1.0000000000
        26         6  DCM       C              -2.5735655242        2.4170903151       -8.1288949273  CLST      6               1.0000000000
        27         6  DCM       H1             -1.6754216553        3.0347578230       -7.9179036584  CLST      6               1.0000000000
        28         6  DCM       H2             -3.3434819168        3.0014088304       -8.6752405537  CLST      6               1.0000000000
        29         6  DCM       CL1            -2.0891870182        1.0180694092       -9.1276727900  CLST      6               1.0000000000
        30         6  DCM       CL2            -3.2666350440        1.8477533311       -6.5835764130  CLST      6               1.0000000000
        31         7  DCM       C              13.3616573752      -11.5176996476        8.8342158551  CLST      7               1.0000000000
        32         7  DCM       H1             13.8371144085      -11.8991456701        9.7626818900  CLST      7               1.0000000000
        33         7  DCM       H2             13.8446440851      -11.9481060174        7.9313787111  CLST      7               1.0000000000
        34         7  DCM       CL1            11.6317540814      -11.9694972921        8.8393934695  CLST      7               1.0000000000
        35         7  DCM       CL2            13.5229101919       -9.7376118652        8.7873018333  CLST      7               1.0000000000
        36         8  DCM       C              -2.4842227785        9.5603182432       -7.8907629982  CLST      8               1.0000000000
        37         8  DCM       H1             -3.3492563170       10.2531144783       -7.8269447077  CLST      8               1.0000000000
        38         8  DCM       H2             -2.0817317358        9.5191197124       -8.9236933517  CLST      8               1.0000000000
        39         8  DCM       CL1            -1.2057320136       10.1360764505       -6.7851515033  CLST      8               1.0000000000
        40         8  DCM       CL2            -3.0125984589        7.9237320644       -7.4135554798  CLST      8               1.0000000000
        41         9  DCM       C               6.7704399979        4.8086282451        7.8718478698  CLST      9               1.0000000000
        42         9  DCM       H1              7.0877419511        5.8324030742        8.1611113139  CLST      9               1.0000000000
        43         9  DCM       H2              7.5428827934        4.0614013441        8.1486466724  CLST      9               1.0000000000
        44         9  DCM       CL1             5.2456029234        4.4087098380        8.7162482905  CLST      9               1.0000000000
        45         9  DCM       CL2             6.5135027765        4.7582890505        6.1033462903  CLST      9               1.0000000000
        46        10  DCM       C               1.3009957665       -6.9379532877       -3.7382257473  CLST      10              1.0000000000
        47        10  DCM       H1              2.3134222002       -6.9621863732       -4.1912135253  CLST      10              1.0000000000
        48        10  DCM       H2              1.3181525063       -7.3396260117       -2.7032882362  CLST      10              1.0000000000
        49        10  DCM       CL1             0.7301287692       -5.2459850490       -3.6975703312  CLST      10              1.0000000000
        50        10  DCM       CL2             0.1978838420       -7.9287555504       -4.7345875991  CLST      10              1.0000000000
        51        11  DCM       C              -4.3549010258      -12.5910339636       -4.0954341320  CLST      11              1.0000000000
        52        11  DCM       H1             -3.5470145377      -11.8482576157       -4.2682114181  CLST      11              1.0000000000
        53        11  DCM       H2             -3.9404970874      -13.5508557934       -3.7206498080  CLST      11              1.0000000000
        54        11  DCM       CL1            -5.4965846008      -11.9375067251       -2.8840671340  CLST      11              1.0000000000
        55        11  DCM       CL2            -5.2111939077      -12.8905257461       -5.6367135570  CLST      11              1.0000000000
        56        12  DCM       C               9.1938963400       -3.3715661418       -6.0265128807  CLST      12              1.0000000000
        57        12  DCM       H1             10.1297510608       -3.9389473746       -6.2037975619  CLST      12              1.0000000000
        58        12  DCM       H2              8.6507666366       -3.1883508843       -6.9775316315  CLST      12              1.0000000000
        59        12  DCM       CL1             9.6016989785       -1.8032890743       -5.2738936239  CLST      12              1.0000000000
        60        12  DCM       CL2             8.1436330503       -4.3120648007       -4.9296361691  CLST      12              1.0000000000
        61        13  DCM       C              -0.9874212139       -7.5020140361       -8.1491467895  CLST      13              1.0000000000
        62        13  DCM       H1              0.0479422898       -7.8594608339       -8.3344562248  CLST      13              1.0000000000
        63        13  DCM       H2             -1.3830628988       -7.9003333557       -7.1920684210  CLST      13              1.0000000000
        64        13  DCM       CL1            -0.9821205170       -5.7170864116       -8.0771076496  CLST      13              1.0000000000
        65        13  DCM       CL2            -2.0450621065       -8.0503528206       -9.4805637394  CLST      13              1.0000000000
        66        14  DCM       C              -5.5214255542        7.6008105301        1.8584299113  CLST      14              1.0000000000
        67        14  DCM       H1             -5.9941433390        7.5898331648        0.8538343828  CLST      14              1.0000000000
        68        14  DCM       H2             -4.4184110449        7.5104860148        1.7814878008  CLST      14              1.0000000000
        69        14  DCM       CL1            -6.1394374153        6.2264030417        2.8131678442  CLST      14              1.0000000000
        70        14  DCM       CL2            -5.9227336425        9.1367046504        2.6783526894  CLST      14              1.0000000000
        71        15  DCM       C              -8.8887409388      -12.3545447182       -5.0713095304  CLST      15              1.0000000000
        72        15  DCM       H1             -8.1302288270      -12.8566687818       -4.4325267471  CLST      15              1.0000000000
        73        15  DCM       H2             -9.9120878209      -12.4987357280       -4.6676790884  CLST      15              1.0000000000
        74        15  DCM       CL1            -8.5300683067      -10.6055099009       -5.1311127176  CLST      15              1.0000000000
        75        15  DCM       CL2            -8.8094291027      -13.0446861063       -6.7178383197  CLST      15              1.0000000000
        76        16  DCM       C              -2.6574680193       -4.5100499716       -4.9028400510  CLST      16              1.0000000000
        77        16  DCM       H1             -3.3724523828       -3.8943616333       -5.4883110256  CLST      16              1.0000000000
        78        16  DCM       H2             -1.6194020908       -4.3758950346       -5.2722367201  CLST      16              1.0000000000
        79        16  DCM       CL1            -2.7341039155       -4.0295347816       -3.1831037338  CLST      16              1.0000000000
        80        16  DCM       CL2            -3.1023609966       -6.2268152291       -5.0693872724  CLST      16              1.0000000000
        81        17  DCM       C               0.4703819453        7.4536305707       -9.2558782830  CLST      17              1.0000000000
        82        17  DCM       H1              1.2582525364        6.8376462106       -9.7396108840  CLST      17              1.0000000000
        83        17  DCM       H2             -0.5298603677        7.2284253277       -9.6800488198  CLST      17              1.0000000000
        84        17  DCM       CL1             0.4504680587        7.0962833276       -7.5042502036  CLST      17              1.0000000000
        85        17  DCM       CL2             0.8455323299        9.1824127902       -9.5207757489  CLST      17              1.0000000000
        86        18  DCM       C               6.5973456715       -9.6332154336       -2.1870510408  CLST      18              1.0000000000
        87        18  DCM       H1              5.6971387284       -9.8758935541       -1.5849912097  CLST      18              1.0000000000
        88        18  DCM       H2              6.3130569470       -9.2623363364       -3.1950146927  CLST      18              1.0000000000
        89        18  DCM       CL1             7.5391725285       -8.3691559722       -1.3426400172  CLST      18              1.0000000000
        90        18  DCM       CL2             7.5926668240      -11.1063313476       -2.3705647660  CLST      18              1.0000000000
        91        19  DCM       C              -6.6945130987      -10.3945295847       -8.6157643064  CLST      19              1.0000000000
        92        19  DCM       H1             -7.6513419377       -9.8583387063       -8.4429059774  CLST      19              1.0000000000
        93        19  DCM       H2             -6.2519323889      -10.7360879072       -7.6566588366  CLST      19              1.0000000000
        94        19  DCM       CL1            -6.9985929772      -11.8170619519       -9.6532563053  CLST      19              1.0000000000
        95        19  DCM       CL2            -5.5472527015       -9.2900504516       -9.4277717773  CLST      19              1.0000000000
        96        20  DCM       C              -1.9895097058       -7.2471952264       -1.7298573494  CLST      20              1.0000000000
        97        20  DCM       H1             -2.8498927937       -6.6829421172       -1.3157444685  CLST      20              1.0000000000
        98        20  DCM       H2             -1.5537414476       -6.7188328659       -2.6028326298  CLST      20              1.0000000000
        99        20  DCM       CL1            -0.7330423311       -7.4079056866       -0.4683174334  CLST      20              1.0000000000
       100        20  DCM       CL2            -2.5446649290       -8.8656726068       -2.2520244751  CLST      20              1.0000000000
       101        21  DCM       C              -1.5511664166       -1.2439110050       -5.6691621670  CLST      21              1.0000000000
       102        21  DCM       H1             -2.4771747209       -1.4793942486       -5.1060564932  CLST      21              1.0000000000
       103        21  DCM       H2             -1.4605464014       -0.1526325480       -5.8389024767  CLST      21              1.0000000000
       104        21  DCM       CL1            -0.1425456548       -1.8006469605       -4.7260180062  CLST      21              1.0000000000
       105        21  DCM       CL2            -1.5922996861       -2.0808652804       -7.2470392396  CLST      21              1.0000000000
       106        22  DCM       C             -10.8534787126      -11.1741635213       -9.1495811718  CLST      22              1.0000000000
       107        22  DCM       H1             -9.9076506507      -11.2852586866       -9.7198588810  CLST      22              1.0000000000
       108        22  DCM       H2            -11.1060113257      -12.1106622712       -8.6089389393  CLST      22              1.0000000000
       109        22  DCM       CL1           -10.6650234644       -9.8498860056       -7.9640187935  CLST      22              1.0000000000
       110        22  DCM       CL2           -12.1739668189      -10.7841711816      -10.2892724250  CLST      22              1.0000000000
       111        23  DCM       C               0.3877718942        8.9379438794       -2.2514527855  CLST      23              1.0000000000
       112        23  DCM       H1             -0.4332877225        8.2695106477       -1.9189587349  CLST      23              1.0000000000
       113        23  DCM       H2              1.3234396007        8.7312251172       -1.6903030277  CLST      23              1.0000000000
       114        23  DCM       CL1             0.6830883510        8.6666324319       -3.9916137991  CLST      23              1.0000000000
       115        23  DCM       CL2            -0.0927754566       10.6378309283       -1.9788918716  CLST      23              1.0000000000
       116        24  DCM       C              -8.4799746692       -2.0096124745      -10.3001540767  CLST      24              1.0000000000
       117        24  DCM       H1             -9.5848291839       -2.0574826762      -10.4011367374  CLST      24              1.0000000000
       118        24  DCM       H2             -8.0632660600       -1.1524799207      -10.8689739558  CLST      24              1.0000000000
       119        24  DCM       CL1            -8.0620279314       -1.8198583729       -8.5730256054  CLST      24              1.0000000000
       120        24  DCM       CL2            -7.7714337725       -3.5241714597      -10.9309328566  CLST      24              1.0000000000
       121        25  DCM       C               7.4132980501      -11.1114438953       -7.6631902468  CLST      25              1.0000000000
       122        25  DCM       H1              7.7407827388      -12.1391764591       -7.9266343960  CLST      25              1.0000000000
       123        25  DCM       H2              6.6363064914      -10.7450372542       -8.3660613194  CLST      25              1.0000000000
       124        25  DCM       CL1             6.7431147958      -11.1247567783       -6.0056623795  CLST      25              1.0000000000
       125        25  DCM       CL2             8.8258936100      -10.0188589274       -7.7334567174  CLST      25              1.0000000000
       126        26  DCM       C             -11.7028598884        6.1143308554        8.8209224838  CLST      26              1.0000000000
       127        26  DCM       H1            -12.5270639698        5.4065989915        8.5931953495  CLST      26              1.0000000000
       128        26  DCM       H2            -11.8166270800        7.0558890972        8.2436665187  CLST      26              1.0000000000
       129        26  DCM       CL1           -11.7247623632        6.4961352862       10.5667706195  CLST      26              1.0000000000
       130        26  DCM       CL2           -10.1452157077        5.3515384529        8.3929762356  CLST      26              1.0000000000
       131        27  DCM       C               9.9542094907       -3.6432045266       -1.9159103418  CLST      27              1.0000000000
       132        27  DCM       H1              9.4231596226       -2.8203603346       -2.4377708661  CLST      27              1.0000000000
       133        27  DCM       H2             10.6296032552       -4.1837230473       -2.6086001802  CLST      27              1.0000000000
       134        27  DCM       CL1            10.9227034822       -2.9513603873       -0.5820729584  CLST      27              1.0000000000
       135        27  DCM       CL2             8.7479227915       -4.7904875764       -1.2605677939  CLST      27              1.0000000000
       136        28  DCM       C              -8.3040703630       -7.1655062732      -10.6989937747  CLST      28              1.0000000000
       137        28  DCM       H1             -7.2322236534       -7.1207564907      -10.9846292491  CLST      28              1.0000000000
       138        28  DCM       H2             -8.8881257946       -6.3749751033      -11.2149512544  CLST      28              1.0000000000
       139        28  DCM       CL1            -8.9567153105       -8.7646340067      -11.1578321244  CLST      28              1.0000000000
       140        28  DCM       CL2            -8.4456998105       -6.9323958951       -8.9320488159  CLST      28              1.0000000000
       141        29  DCM       C               3.4140301961       -2.5362066062       -0.2626226438  CLST      29              1.0000000000
       142        29  DCM       H1              3.9750653200       -1.9871727794       -1.0455834431  CLST      29              1.0000000000
       143        29  DCM       H2              3.1309183898       -1.8628738570        0.5714656909  CLST      29              1.0000000000
       144        29  DCM       CL1             1.9284604528       -3.2251364405       -0.9792155864  CLST      29              1.0000000000
       145        29  DCM       CL2             4.4473180980       -3.8521224721        0.3664835542  CLST      29              1.0000000000
       146        30  DCM       C              -6.9201973821       -2.9887467436        4.3757274781  CLST      30              1.0000000000
       147        30  DCM       H1             -6.6090443557       -3.9275273425        4.8755292876  CLST      30              1.0000000000
       148        30  DCM       H2             -6.0602622565       -2.5027672299        3.8719125576  CLST      30              1.0000000000
       149        30  DCM       CL1            -8.1696559946       -3.3758207143        3.1576590653  CLST      30              1.0000000000
       150        30  DCM       CL2            -7.5859483185       -1.8737414653        5.6041049257  CLST      30              1.0000000000
       151        31  DCM       C              -3.7264309370       10.0553411693       -0.4544435010  CLST      31              1.0000000000
       152        31  DCM       H1             -3.7019173756       10.4122142923        0.5962160976  CLST      31              1.0000000000
       153        31  DCM       H2             -3.1368189007       10.7232384799       -1.1176401398  CLST      31              1.0000000000
       154        31  DCM       CL1            -3.0355951742        8.4080460952       -0.5295638257  CLST      31              1.0000000000
       155        31  DCM       CL2            -5.4232892273       10.0253694115       -1.0155346675  CLST      31              1.0000000000
       156        32  DCM       C               5.3457356473        0.5892191733        7.5032164743  CLST      32              1.0000000000
       157        32  DCM       H1              5.3534810286       -0.4853970426        7.2216530799  CLST      32              1.0000000000
       158        32  DCM       H2              4.8628638844        0.7426780842        8.4913246560  CLST      32              1.0000000000
       159        32  DCM       CL1             7.0319566517        1.1779160405        7.5851240599  CLST      32              1.0000000000
       160        32  DCM       CL2             4.4385326201        1.5070629851        6.2658319119  CLST      32              1.0000000000
       161        33  DCM       C              -3.1229304555       -6.3808174246        6.6294717440  CLST      33              1.0000000000
       162        33  DCM       H1             -3.5472127291       -7.3898881875        6.8163020049  CLST      33              1.0000000000
       163        33  DCM       H2             -2.2293642607       -6.4419875941        5.9747649389  CLST      33              1.0000000000
       164        33  DCM       CL1            -4.3650389438       -5.3711888793        5.8386833374  CLST      33              1.0000000000
       165        33  DCM       CL2            -2.6548366394       -5.6474175778        8.1902072436  CLST      33              1.0000000000
       166        34  DCM       C               7.8527618176       -1.4153069122        0.8439232268  CLST      34              1.0000000000
       167        34  DCM       H1              8.5788160580       -0.7509024317        1.3571998291  CLST      34              1.0000000000
       168        34  DCM       H2              8.2394614401       -1.7405367054       -0.1430885914  CLST      34              1.0000000000
       169        34  DCM       CL1             6.3144806427       -0.5317649289        0.6072387141  CLST      34              1.0000000000
       170        34  DCM       CL2             7.5736442067       -2.8639403907        1.8535723026  CLST      34              1.0000000000
       171        35  DCM       C               4.1255306121        8.6145883989       -7.7054402627  CLST      35              1.0000000000
       172        35  DCM       H1              3.3905317024        9.4242633922       -7.8914683807  CLST      35              1.0000000000
       173        35  DCM       H2              5.1367520256        9.0301614013       -7.5169040516  CLST      35              1.0000000000
       174        35  DCM       CL1             3.6138742885        7.6755823045       -6.2747743946  CLST      35              1.0000000000
       175        35  DCM       CL2             4.1851929255        7.5490856227       -9.1380402732  CLST      35              1.0000000000
       176        36  DCM       C               6.9504623379        6.6282186936       11.4311995567  CLST      36              1.0000000000
       177        36  DCM       H1              7.3696995845        7.3710141465       12.1434273882  CLST      36              1.0000000000
       178        36  DCM       H2              6.6866333282        7.1074300756       10.4657740034  CLST      36              1.0000000000
       179        36  DCM       CL1             8.1675014953        5.3532778012       11.1342997662  CLST      36              1.0000000000
       180        36  DCM       CL2             5.4763792855        5.9093642872       12.1417800671  CLST      36              1.0000000000
       181        37  DCM       C              -9.2236864194        7.0151020378        0.4500350401  CLST      37              1.0000000000
       182        37  DCM       H1             -8.5718101944        6.1779595144        0.7760401986  CLST      37              1.0000000000
       183        37  DCM       H2            -10.2289833763        6.6460702675        0.1569210063  CLST      37              1.0000000000
       184        37  DCM       CL1            -9.3999065787        8.1741238121        1.7985685337  CLST      37              1.0000000000
       185        37  DCM       CL2            -8.4745680025        7.8367692493       -0.9505590663  CLST      37              1.0000000000
       186        38  DCM       C               1.9041590204       -3.9861654563       -6.8623310727  CLST      38              1.0000000000
       187        38  DCM       H1              2.5407530850       -3.4380341335       -6.1370196177  CLST      38              1.0000000000
       188        38  DCM       H2              0.8373415084       -3.9551984031       -6.5558609950  CLST      38              1.0000000000
       189        38  DCM       CL1             2.0664329618       -3.2427910071       -8.4779663529  CLST      38              1.0000000000
       190        38  DCM       CL2             2.4342656317       -5.6891063735       -6.9377534559  CLST      38              1.0000000000
       191        39  DCM       C              -4.4738516272       -5.3367144733       -8.4026874051  CLST      39              1.0000000000
       192        39  DCM       H1             -3.6128358317       -4.6381650376       -8.3548920912  CLST      39              1.0000000000
       193        39  DCM       H2             -4.2285555160       -6.3129005241       -7.9329902478  CLST      39              1.0000000000
       194        39  DCM       CL1            -5.8564846916       -4.6011755910       -7.5440777780  CLST      39              1.0000000000
       195        39  DCM       CL2            -4.8955245024       -5.6114387724      -10.1158970978  CLST      39              1.0000000000
       196        40  DCM       C             -12.0833152482       -2.9823431720        3.8839374454  CLST      40              1.0000000000
       197        40  DCM       H1            -12.0499946305       -3.9692636182        3.3892953247  CLST      40              1.0000000000
       198        40  DCM       H2            -13.1173559101       -2.7152243963        4.1880742738  CLST      40              1.0000000000
       199        40  DCM       CL1           -11.4740426944       -1.7419144499        2.7457542861  CLST      40              1.0000000000
       200        40  DCM       CL2           -11.0476652416       -3.0288356207        5.3434259976  CLST      40              1.0000000000
       201        41  DCM       C              -3.7714899748        3.7483733648        1.7577958265  CLST      41              1.0000000000
       202        41  DCM       H1             -3.6656331706        4.1404776558        2.7905083808  CLST      41              1.0000000000
       203        41  DCM       H2             -4.8419550052        3.6414652675        1.4813431440  CLST      41              1.0000000000
       204        41  DCM       CL1            -2.9842755219        4.8832278220        0.6232327740  CLST      41              1.0000000000
       205        41  DCM       CL2            -2.9844498337        2.1476657146        1.6614072542  CLST      41              1.0000000000
       206        42  DCM       C              -8.4543950458       -6.2134443193        5.7326341243  CLST      42              1.0000000000
       207        42  DCM       H1             -9.1552675024       -5.8617619342        4.9599836376  CLST      42              1.0000000000
       208        42  DCM       H2             -7.4132378885       -6.2742326079        5.3401334346  CLST      42              1.0000000000
       209        42  DCM       CL1            -8.4918727244       -5.0622784285        7.1026150322  CLST      42              1.0000000000
       210        42  DCM       CL2            -8.9643129846       -7.8354645956        6.2932586097  CLST      42              1.0000000000
       211        43  DCM       C              11.6453602456       -6.4992718060       -6.9617264267  CLST      43              1.0000000000
       212        43  DCM       H1             10.6248790539       -6.4442983370       -6.5247437840  CLST      43              1.0000000000
       213        43  DCM       H2             12.4181224059       -6.2594070305       -6.2022543380  CLST      43              1.0000000000
       214        43  DCM       CL1            11.9237527372       -8.1560613908       -7.5699248594  CLST      43              1.0000000000
       215        43  DCM       CL2            11.7642327661       -5.3298183728       -8.3086272124  CLST      43              1.0000000000
       216        44  DCM       C               3.9144369570       -1.7810060038        3.5664206232  CLST      44              1.0000000000
       217        44  DCM       H1              4.7025453159       -2.2428383785        2.9316570833  CLST      44              1.0000000000
       218        44  DCM       H2              4.2564739555       -1.6722203303        4.6135000899  CLST      44              1.0000000000
       219        44  DCM       CL1             3.5173723543       -0.1609833081        2.9190171497  CLST      44              1.0000000000
       220        44  DCM       CL2             2.4486926970       -2.8144531731        3.5248296848  CLST      44              1.0000000000
       221        45  DCM       C              -4.4513187333       -1.7086243546       -9.9277882147  CLST      45              1.0000000000
       222        45  DCM       H1             -4.1923309785       -1.1378677808       -9.0124726705  CLST      45              1.0000000000
       223        45  DCM       H2             -5.2089791214       -2.4904303571       -9.7103335583  CLST      45              1.0000000000
       224        45  DCM       CL1            -5.1106568803       -0.5787033158      -11.1457556988  CLST      45              1.0000000000
       225        45  DCM       CL2            -2.9735463041       -2.4889946430      -10.5622928763  CLST      45              1.0000000000
       226        46  DCM       C              -8.9042418103        8.6593601866        7.3248273722  CLST      46              1.0000000000
       227        46  DCM       H1             -8.1660155182        9.4051241618        6.9616718388  CLST      46              1.0000000000
       228        46  DCM       H2             -8.5156396266        7.6253633514        7.2130767554  CLST      46              1.0000000000
       229        46  DCM       CL1            -9.2383922700        8.9652992478        9.0537945084  CLST      46              1.0000000000
       230        46  DCM       CL2           -10.4081707464        8.8199722353        6.3729269772  CLST      46              1.0000000000
       231        47  DCM       C              -0.3863398564        2.1317881406       -1.6657515228  CLST      47              1.0000000000
       232        47  DCM       H1             -1.0803712578        2.9086277627       -1.2707772194  CLST      47              1.0000000000
       233        47  DCM       H2              0.6635419066        2.4782442737       -1.5975618639  CLST      47              1.0000000000
       234        47  DCM       CL1            -0.5664792367        0.6338885116       -0.7040520106  CLST      47              1.0000000000
       235        47  DCM       CL2            -0.7992785438        1.7953932240       -3.3732643449  CLST      47              1.0000000000
       236        48  DCM       C              -3.8751552813       -6.4176380864        2.1147413972  CLST      48              1.0000000000
       237        48  DCM       H1             -3.2167682377       -5.7156758325        1.5607447529  CLST      48              1.0000000000
       238        48  DCM       H2             -3.4471167564       -6.6625064506        3.1104206277  CLST      48              1.0000000000
       239        48  DCM       CL1            -5.4775826860       -5.6620152162        2.3452298901  CLST      48              1.0000000000
       240        48  DCM       CL2            -4.0525173214       -7.9250524160        1.1719814306  CLST      48              1.0000000000
       241        49  DCM       C               5.6942615617        2.7789339133       -6.1687583730  CLST      49              1.0000000000
       242        49  DCM       H1              6.7838226326        2.7644829583       -5.9496634101  CLST      49              1.0000000000
       243        49  DCM       H2              5.4957955664        2.5197302319       -7.2293164364  CLST      49              1.0000000000
       244        49  DCM       CL1             4.8716985697        1.5948829672       -5.1185717421  CLST      49              1.0000000000
       245        49  DCM       CL2             5.0598679434        4.4138017284       -5.8348824265  CLST      49              1.0000000000
       246        50  DCM       C              -3.7926333684       10.9331241793       -4.4134310690  CLST      50              1.0000000000
       247        50  DCM       H1             -4.7359010771       11.0479984192       -3.8421147965  CLST      50              1.0000000000
       248        50  DCM       H2             -3.9865169660       10.8814940347       -5.5039887331  CLST      50              1.0000000000
       249        50  DCM       CL1            -2.7274664772       12.3295554607       -4.0795752223  CLST      50              1.0000000000
       250        50  DCM       CL2            -2.9816970635        9.4247200537       -3.9076009525  CLST      50              1.0000000000
       251        51  DCM       C              -7.7144573287        5.8871937079       11.1878084050  CLST      51              1.0000000000
       252        51  DCM       H1             -8.8075999336        5.8078356636       11.0057401085  CLST      51              1.0000000000
       253        51  DCM       H2             -7.4885851992        6.7109833707       11.8979506933  CLST      51              1.0000000000
       254        51  DCM       CL1            -7.1293020881        4.3458760125       11.8786198385  CLST      51              1.0000000000
       255        51  DCM       CL2            -6.8830319391        6.2123184665        9.6389774484  CLST      51              1.0000000000
       256        52  DCM       C               6.8378755134       -0.4849997545       -3.1194768197  CLST      52              1.0000000000
       257        52  DCM       H1              6.9062329271       -0.4796087856       -4.2259378424  CLST      52              1.0000000000
       258        52  DCM       H2              5.9991725311        0.1449661982       -2.7646829593  CLST      52              1.0000000000
       259        52  DCM       CL1             6.5652076327       -2.1602976593       -2.5634626285  CLST      52              1.0000000000
       260        52  DCM       CL2             8.3679393237        0.1442340315       -2.4400443484  CLST      52              1.0000000000
       261        53  DCM       C              11.4776272016       -9.5683026661       11.8293010641  CLST      53              1.0000000000
       262        53  DCM       H1             10.8152767437      -10.0086801674       11.0543210427  CLST      53              1.0000000000
       263        53  DCM       H2             12.0785156541       -8.7325608889       11.4123560925  CLST      53              1.0000000000
       264        53  DCM       CL1            10.4712085896       -8.9489818529       13.1707177176  CLST      53              1.0000000000
       265        53  DCM       CL2            12.5852855659      -10.8343123902       12.4357648335  CLST      53              1.0000000000
       266        54  DCM       C               3.7051159083        7.7629146435        8.9934221238  CLST      54              1.0000000000
       267        54  DCM       H1              4.0266558357        7.4350263040       10.0045946338  CLST      54              1.0000000000
       268        54  DCM       H2              3.1148604602        6.9705032450        8.4861461249  CLST      54              1.0000000000
       269        54  DCM       CL1             2.6970533054        9.2301871888        9.1539717877  CLST      54              1.0000000000
       270        54  DCM       CL2             5.1529336490        8.1283810193        8.0108500868  CLST      54              1.0000000000
       271        55  DCM       C              -8.5350118169        0.6534873985       -5.5795061528  CLST      55              1.0000000000
       272        55  DCM       H1             -8.0050239108        0.0867166081       -6.3711188056  CLST      55              1.0000000000
       273        55  DCM       H2             -9.1890443234       -0.0115302994       -4.9775966666  CLST      55              1.0000000000
       274        55  DCM       CL1            -7.3249334638        1.4106205666       -4.5035984366  CLST      55              1.0000000000
       275        55  DCM       CL2            -9.5388764036        1.9187459443       -6.3458754637  CLST      55              1.0000000000
       276        56  DCM       C             -11.2900614136        2.2983398920        2.0318231456  CLST      56              1.0000000000
       277        56  DCM       H1            -12.2977926869        2.0787772901        2.4449672847  CLST      56              1.0000000000
       278        56  DCM       H2            -10.5029503241        2.1165544454        2.7942509665  CLST      56              1.0000000000
       279        56  DCM       CL1           -10.9911135600        1.2380842030        0.6247897036  CLST      56              1.0000000000
       280        56  DCM       CL2           -11.2245709361        4.0103179568        1.5237394328  CLST      56              1.0000000000
       281        57  DCM       C             -12.4066911703       -6.1360511850        6.6832525984  CLST      57              1.0000000000
       282        57  DCM       H1            -11.5011521129       -5.6448970365        7.0865618791  CLST      57              1.0000000000
       283        57  DCM       H2            -12.6312060128       -7.0772800088        7.2440502639  CLST      57              1.0000000000
       284        57  DCM       CL1           -13.8000388103       -5.0280558508        6.8374280685  CLST      57              1.0000000000
       285        57  DCM       CL2           -12.1457766765       -6.5435497484        4.9630056723  CLST      57              1.0000000000
       286        58  DCM       C               1.3607384820        0.3342987544       -8.0141498037  CLST      58              1.0000000000
       287        58  DCM       H1              1.0230125395       -0.7084890140       -7.8549698967  CLST      58              1.0000000000
       288        58  DCM       H2              0.9363933706        0.7530808188       -8.9494983688  CLST      58              1.0000000000
       289        58  DCM       CL1             0.8214837890        1.3228800558       -6.6278613212  CLST      58              1.0000000000
       290        58  DCM       CL2             3.1453296306        0.3662192407       -8.1178962477  CLST      58              1.0000000000
       291        59  DCM       C             -10.3905083452        0.4344669079        5.6138798182  CLST      59              1.0000000000
       292        59  DCM       H1            -10.0595909505       -0.2484856067        4.8015528119  CLST      59              1.0000000000
       293        59  DCM       H2            -10.2530581265       -0.0416226283        6.6085426878  CLST      59              1.0000000000
       294        59  DCM       CL1           -12.1175612549        0.8211688003        5.3786563867  CLST      59              1.0000000000
       295        59  DCM       CL2            -9.4210369395        1.9292378667        5.5366414557  CLST      59              1.0000000000
       296        60  DCM       C               2.6058214883        4.1204264104       -8.2832196509  CLST      60              1.0000000000
       297        60  DCM       H1              2.6999242003        3.3794871312       -7.4621839460  CLST      60              1.0000000000
       298        60  DCM       H2              2.6453436459        5.1555752018       -7.8864548063  CLST      60              1.0000000000
       299        60  DCM       CL1             3.9575713198        3.8884489542       -9.4297180789  CLST      60              1.0000000000
       300        60  DCM       CL2             1.0475081148        3.8694822768       -9.1249552841  CLST      60              1.0000000000
       301        61  DCM       C              -7.1582425509        2.6807111033        8.4141786972  CLST      61              1.0000000000
       302        61  DCM       H1             -7.4832791161        3.1405644733        7.4580364505  CLST      61              1.0000000000
       303        61  DCM       H2             -7.7069326488        3.1214204597        9.2721898996  CLST      61              1.0000000000
       304        61  DCM       CL1            -5.4078427275        2.9697726637        8.6315301465  CLST      61              1.0000000000
       305        61  DCM       CL2            -7.4784018963        0.9221743636        8.3591404514  CLST      61              1.0000000000
       306        62  DCM       C               8.1108239486       10.4099882182       -7.6508356521  CLST      62              1.0000000000
       307        62  DCM       H1              8.3342915655       11.4965967670       -7.6965913681  CLST      62              1.0000000000
       308        62  DCM       H2              7.3882357763       10.1842005100       -6.8385075100  CLST      62              1.0000000000
       309        62  DCM       CL1             7.4111062697        9.8930023711       -9.2135448953  CLST      62              1.0000000000
       310        62  DCM       CL2             9.6296023665        9.5181102284       -7.3411933661  CLST      62              1.0000000000
       311        63  DCM       C               6.5339271608        3.4864593949       -2.0708070988  CLST      63              1.0000000000
       312        63  DCM       H1              6.9938235242        3.5520764532       -1.0611616188  CLST      63              1.0000000000
       313        63  DCM       H2              6.3930691718        2.4304555746       -2.3777680989  CLST      63              1.0000000000
       314        63  DCM       CL1             4.9402326396        4.2907048778       -2.0402114025  CLST      63              1.0000000000
       315        63  DCM       CL2             7.5982713787        4.2995850377       -3.2538657548  CLST      63              1.0000000000
       316        64  DCM       C              -5.0265127619       -8.7469362678        9.0969068988  CLST      64              1.0000000000
       317        64  DCM       H1             -4.0337251845       -8.2914927221        9.2977911994  CLST      64              1.0000000000
       318        64  DCM       H2             -5.4690741392       -9.1678342144       10.0241569945  CLST      64              1.0000000000
       319        64  DCM       CL1            -6.1186668059       -7.4907397770        8.4492726627  CLST      64              1.0000000000
       320        64  DCM       CL2            -4.8352795940      -10.0578168662        7.8971851782  CLST      64              1.0000000000
       321        65  DCM       C              -2.5200463479        8.3775492491        4.2521783670  CLST      65              1.0000000000
       322        65  DCM       H1             -3.5838687321        8.5784580041        4.4944460946  CLST      65              1.0000000000
       323        65  DCM       H2             -1.8667890924        8.5809899024        5.1275915680  CLST      65              1.0000000000
       324        65  DCM       CL1            -2.0288562830        9.4321943419        2.8959231494  CLST      65              1.0000000000
       325        65  DCM       CL2            -2.3437168464        6.6630043768        3.7801500861  CLST      65              1.0000000000
       326        66  DCM       C               1.9540598662        5.3270240210       -3.8366172112  CLST      66              1.0000000000
       327        66  DCM       H1              2.9617726532        5.7610282374       -3.9933681892  CLST      66              1.0000000000
       328        66  DCM       H2              1.1949052566        5.8385767511       -4.4665880132  CLST      66              1.0000000000
       329        66  DCM       CL1             2.0014423982        3.6010734167       -4.2776514098  CLST      66              1.0000000000
       330        66  DCM       CL2             1.5064826089        5.4958902139       -2.1142959638  CLST      66              1.0000000000
       331        67  DCM       C               5.3788891602       -5.7052840357       -2.8092970251  CLST      67              1.0000000000
       332        67  DCM       H1              6.1216642652       -6.3151385747       -3.3650910809  CLST      67              1.0000000000
       333        67  DCM       H2              5.8815385870       -5.0203876679       -2.0952175621  CLST      67              1.0000000000
       334        67  DCM       CL1             4.4296574954       -4.7395144474       -3.9751725389  CLST      67              1.0000000000
       335        67  DCM       CL2             4.2924407540       -6.7926019232       -1.8976623311  CLST      67              1.0000000000
       336        68  DCM       C               2.3265383737       -0.0242607823       -3.0263658849  CLST      68              1.0000000000
       337        68  DCM       H1              1.4636476452       -0.5043864072       -2.5178978854  CLST      68              1.0000000000
       338        68  DCM       H2              1.9846337127        0.7054956878       -3.7874759038  CLST      68              1.0000000000
       339        68  DCM       CL1             3.3228127923        0.8230680365       -1.8060516830  CLST      68              1.0000000000
       340        68  DCM       CL2             3.2916077520       -1.2901391028       -3.8386094657  CLST      68              1.0000000000
       341        69  DCM       C               5.2465226403       -7.8955100611       -7.1126378199  CLST      69              1.0000000000
       342        69  DCM       H1              6.2871762770       -8.2726219739       -7.1928980653  CLST      69              1.0000000000
       343        69  DCM       H2              5.2010472874       -6.8080141860       -7.3326633070  CLST      69              1.0000000000
       344        69  DCM       CL1             4.2217375951       -8.7729144923       -8.2845731681  CLST      69              1.0000000000
       345        69  DCM       CL2             4.6482187597       -8.1846206194       -5.4532423726  CLST      69              1.0000000000
       346        70  DCM       C              -2.0845379568        6.0540611160       -4.5783547046  CLST      70              1.0000000000
       347        70  DCM       H1             -1.5252996282        6.9872242439       -4.8089062957  CLST      70              1.0000000000
       348        70  DCM       H2             -3.1553614800        6.1622747467       -4.8417793556  CLST      70              1.0000000000
       349        70  DCM       CL1            -1.3819197586        4.7139058759       -5.5253066488  CLST      70              1.0000000000
       350        70  DCM       CL2            -1.9424844991        5.7052065380       -2.8323811667  CLST      70              1.0000000000
       351        71  DCM       C               2.0171211846       11.2262229674       -5.9581906576  CLST      71              1.0000000000
       352        71  DCM       H1              1.7249155432       10.1834775407       -6.2187307268  CLST      71              1.0000000000
       353        71  DCM       H2              1.2535083780       11.7021027801       -5.3134133629  CLST      71              1.0000000000
       354        71  DCM       CL1             3.5789152979       11.1843673910       -5.0889932214  CLST      71              1.0000000000
       355        71  DCM       CL2             2.1857829248       12.1641968400       -7.4704530643  CLST      71              1.0000000000
       356        72  DCM       C              -5.4058710482       -1.9671511666        0.8107850822  CLST      72              1.0000000000
       357        72  DCM       H1             -5.2459905853       -3.0448018560        1.0224019993  CLST      72              1.0000000000
       358        72  DCM       H2             -5.6779441639       -1.4141987601        1.7309091120  CLST      72              1.0000000000
       359        72  DCM       CL1            -3.8941756743       -1.2796134491        0.1457362351  CLST      72              1.0000000000
       360        72  DCM       CL2            -6.7332125132       -1.8028319271       -0.3758976460  CLST      72              1.0000000000
       361        73  DCM       C              -5.7722094678       11.6975012165       -9.3251939413  CLST      73              1.0000000000
       362        73  DCM       H1             -4.9285865858       12.3108306223       -9.7021246554  CLST      73              1.0000000000
       363        73  DCM       H2             -6.7379570082       12.0372641760       -9.7583615507  CLST      73              1.0000000000
       364        73  DCM       CL1            -5.5039779003        9.9896354147       -9.7812371191  CLST      73              1.0000000000
       365        73  DCM       CL2            -5.8488926114       11.8450532741       -7.5449707323  CLST      73              1.0000000000
       366        74  DCM       C              -4.4279086874       -9.8804125075        4.2516233268  CLST      74              1.0000000000
       367        74  DCM       H1             -4.5280955643      -10.1621756001        3.1817575910  CLST      74              1.0000000000
       368        74  DCM       H2             -4.6159292666      -10.7519054835        4.9130764139  CLST      74              1.0000000000
       369        74  DCM       CL1            -2.7705235554       -9.2753702129        4.5413018945  CLST      74              1.0000000000
       370        74  DCM       CL2            -5.6150562073       -8.5984256456        4.6289962944  CLST      74              1.0000000000
       371        75  DCM       C              -1.5397437065       -3.4340266949        4.2654167120  CLST      75              1.0000000000
       372        75  DCM       H1             -1.7592606413       -3.5003806258        5.3522015009  CLST      75              1.0000000000
       373        75  DCM       H2             -0.7829708803       -2.6466494187        4.0571774537  CLST      75              1.0000000000
       374        75  DCM       CL1            -0.9096022493       -5.0086282469        3.7006076910  CLST      75              1.0000000000
       375        75  DCM       CL2            -3.0466236740       -3.0377454689        3.3895678084  CLST      75              1.0000000000
       376        76  DCM       C              -7.3708538624        1.4577593575        1.6312751236  CLST      76              1.0000000000
       377        76  DCM       H1             -7.8141737568        1.4016269663        0.6144410670  CLST      76              1.0000000000
       378        76  DCM       H2             -6.2710695457        1.3091402014        1.6012862030  CLST      76              1.0000000000
       379        76  DCM       CL1            -7.7225594745        3.0641297436        2.3257718662  CLST      76              1.0000000000
       380        76  DCM       CL2            -8.1004591097        0.1831157687        2.6445200169  CLST      76              1.0000000000
       381        77  DCM       C               7.7147475930        6.2480562510       -8.6140885634  CLST      77              1.0000000000
       382        77  DCM       H1              6.9593594304        6.5685722030       -9.3629460725  CLST      77              1.0000000000
       383        77  DCM       H2              8.7212669589        6.6389466211       -8.8730661129  CLST      77              1.0000000000
       384        77  DCM       CL1             7.2426002230        6.8726601085       -7.0083808158  CLST      77              1.0000000000
       385        77  DCM       CL2             7.7706251088        4.4622629434       -8.5719812667  CLST      77              1.0000000000
       386        78  DCM       C              -1.2016192297       12.7762848629       -9.3738011014  CLST      78              1.0000000000
       387        78  DCM       H1             -0.4452690444       12.1014267155       -8.9217671355  CLST      78              1.0000000000
       388        78  DCM       H2             -0.7214447399       13.6821156076       -9.8017714977  CLST      78              1.0000000000
       389        78  DCM       CL1            -2.0566858586       11.8987012458      -10.6756824577  CLST      78              1.0000000000
       390        78  DCM       CL2            -2.3679980589       13.2754506286       -8.1130667760  CLST      78              1.0000000000
       391        79  DCM       C              10.1230185811        5.4936916614       -5.5693695781  CLST      79              1.0000000000
       392        79  DCM       H1              9.2771395389        4.8517255038       -5.8991577634  CLST      79              1.0000000000
       393        79  DCM       H2              9.7530979276        6.4044245728       -5.0537524009  CLST      79              1.0000000000
       394        79  DCM       CL1            11.0743362309        5.9815639864       -7.0016503300  CLST      79              1.0000000000
       395        79  DCM       CL2            11.1512601953        4.5604686988       -4.4443519623  CLST      79              1.0000000000
       396        80  DCM       C              -5.1388478447       -9.0879720583       -5.2453322448  CLST      80              1.0000000000
       397        80  DCM       H1             -5.7385714761      -10.0042019668       -5.0748380099  CLST      80              1.0000000000
       398        80  DCM       H2             -4.7847212458       -8.6590043390       -4.2843339458  CLST      80              1.0000000000
       399        80  DCM       CL1            -3.7261610678       -9.5041912871       -6.2587393401  CLST      80              1.0000000000
       400        80  DCM       CL2            -6.1595729842       -7.8829152861       -6.0804244737  CLST      80              1.0000000000
       401        81  DCM       C               6.9525535413        1.5930293561        3.7174660259  CLST      81              1.0000000000
       402        81  DCM       H1              5.9415457279        1.7119492678        3.2752486010  CLST      81              1.0000000000
       403        81  DCM       H2              7.0732282310        2.2338873586        4.6165272484  CLST      81              1.0000000000
       404        81  DCM       CL1             7.1820096770       -0.1150632551        4.1933663984  CLST      81              1.0000000000
       405        81  DCM       CL2             8.1787293825        2.0590997484        2.5025003122  CLST      81              1.0000000000
       406        82  DCM       C              -5.5442667950        1.1181726647        5.2899308129  CLST      82              1.0000000000
       407        82  DCM       H1             -6.6304712562        0.8932699806        5.2494996025  CLST      82              1.0000000000
       408        82  DCM       H2             -5.1249878517        0.8823524169        6.2932572510  CLST      82              1.0000000000
       409        82  DCM       CL1            -4.6990759556        0.1340522059        4.0633911372  CLST      82              1.0000000000
       410        82  DCM       CL2            -5.3003184090        2.8537452508        4.9509337408  CLST      82              1.0000000000
       411        83  DCM       C             -10.8796281336        1.9156218647        9.1473646041  CLST      83              1.0000000000
       412        83  DCM       H1            -10.2223338856        2.3162957089        8.3511206025  CLST      83              1.0000000000
       413        83  DCM       H2            -10.8184530856        0.8067602884        9.1979851183  CLST      83              1.0000000000
       414        83  DCM       CL1           -10.3703458524        2.5998437156       10.7193289075  CLST      83              1.0000000000
       415        83  DCM       CL2           -12.5654793870        2.3916443483        8.7931922192  CLST      83              1.0000000000
       416        84  DCM       C             -12.0130270185       11.3427600544        9.4760601898  CLST      84              1.0000000000
       417        84  DCM       H1            -11.2070999080       11.1016418926       10.2008647682  CLST      84              1.0000000000
       418        84  DCM       H2            -12.7335195108       12.0710332005        9.9053407103  CLST      84              1.0000000000
       419        84  DCM       CL1           -11.2786864494       12.0493850793        8.0066574035  CLST      84              1.0000000000
       420        84  DCM       CL2           -12.8858624157        9.8392939526        9.0571298800  CLST      84              1.0000000000
       421        85  DCM       C              -4.0009103151        2.0130660600       -1.9088948245  CLST      85              1.0000000000
       422        85  DCM       H1             -3.4756100447        2.6091964702       -1.1375501627  CLST      85              1.0000000000
       423        85  DCM       H2             -3.4207378609        1.1061755504       -2.1783189679  CLST      85              1.0000000000
       424        85  DCM       CL1            -5.5923061876        1.5153491210       -1.2760245282  CLST      85              1.0000000000
       425        85  DCM       CL2            -4.2208698249        3.0263316464       -3.3615958321  CLST      85              1.0000000000
       426        86  DCM       C               6.1363807343       10.7368365395       10.5114383016  CLST      86              1.0000000000
       427        86  DCM       H1              6.3451182107       11.7576667359       10.8938614298  CLST      86              1.0000000000
       428        86  DCM       H2              5.4873404466       10.7728582631        9.6096828705  CLST      86              1.0000000000
       429        86  DCM       CL1             7.6830733246        9.9476827124       10.0843798991  CLST      86              1.0000000000
       430        86  DCM       CL2             5.3079387919        9.7959449492       11.7861117299  CLST      86              1.0000000000
       431        87  DCM       C              -7.3490350586        2.6325188021       -9.2502264736  CLST      87              1.0000000000
       432        87  DCM       H1             -7.8025609879        3.3206960044       -8.5060485188  CLST      87              1.0000000000
       433        87  DCM       H2             -6.7559733600        3.1929405424      -10.0035332175  CLST      87              1.0000000000
       434        87  DCM       CL1            -6.2734140625        1.4865569959       -8.4016043682  CLST      87              1.0000000000
       435        87  DCM       CL2            -8.6508770247        1.7334240953      -10.0814214120  CLST      87              1.0000000000
       436        88  DCM       C              -9.1362959374        9.9394615044       -7.5148892158  CLST      88              1.0000000000
       437        88  DCM       H1             -8.3088497476       10.2420533403       -6.8421756970  CLST      88              1.0000000000
       438        88  DCM       H2            -10.0575929639        9.7088456598       -6.9396466573  CLST      88              1.0000000000
       439        88  DCM       CL1            -9.4799909687       11.2793062792       -8.6488263840  CLST      88              1.0000000000
       440        88  DCM       CL2            -8.6412217046        8.4824629047       -8.4271659356  CLST      88              1.0000000000
       441        89  DCM       C               9.7695560177       -8.3652052515       -4.2622767385  CLST      89              1.0000000000
       442        89  DCM       H1             10.3888331407       -8.8081225672       -5.0718965420  CLST      89              1.0000000000
       443        89  DCM       H2              9.5577816239       -9.1116115366       -3.4715061185  CLST      89              1.0000000000
       444        89  DCM       CL1            10.6486475113       -6.9877399259       -3.5402431664  CLST      89              1.0000000000
       445        89  DCM       CL2             8.2272239523       -7.8005330351       -4.9599551177  CLST      89              1.0000000000
       446        90  DCM       C              -6.6740264714        8.1552048093       -4.1123744170  CLST      90              1.0000000000
       447        90  DCM       H1             -7.6527996455        7.6336456104       -4.1659816295  CLST      90              1.0000000000
       448        90  DCM       H2             -6.7598855304        9.1082611416       -3.5498803072  CLST      90              1.0000000000
       449        90  DCM       CL1            -5.4961658353        7.0967350807       -3.2853963934  CLST      90              1.0000000000
       450        90  DCM       CL2            -6.1078981637        8.5047044248       -5.7701936305  CLST      90              1.0000000000
       451        91  DCM       C              -5.7478046521       -1.9777636291       -4.7233413590  CLST      91              1.0000000000
       452        91  DCM       H1             -6.8241702819       -1.7521660182       -4.5714379269  CLST      91              1.0000000000
       453        91  DCM       H2             -5.5638704502       -3.0728987189       -4.7065464009  CLST      91              1.0000000000
       454        91  DCM       CL1            -4.8059621137       -1.2064452829       -3.4188086603  CLST      91              1.0000000000
       455        91  DCM       CL2            -5.2267178337       -1.3173422277       -6.2986218954  CLST      91              1.0000000000
       456        92  DCM       C              -9.4454722677        5.7657832023        4.4033520195  CLST      92              1.0000000000
       457        92  DCM       H1             -9.2571877420        5.3731564003        3.3831858699  CLST      92              1.0000000000
       458        92  DCM       H2             -9.4425863246        6.8769575783        4.4074005617  CLST      92              1.0000000000
       459        92  DCM       CL1           -11.0378461793        5.1846822234        4.9693324008  CLST      92              1.0000000000
       460        92  DCM       CL2            -8.1592272340        5.1849219956        5.4961683427  CLST      92              1.0000000000
       461        93  DCM       C               5.4612288602       -2.1988080755       -6.5301996694  CLST      93              1.0000000000
       462        93  DCM       H1              4.4116658527       -1.8379903538       -6.5787766150  CLST      93              1.0000000000
       463        93  DCM       H2              5.7562358809       -2.4259654733       -5.4853099126  CLST      93              1.0000000000
       464        93  DCM       CL1             5.6071805888       -3.6856380849       -7.5097304707  CLST      93              1.0000000000
       465        93  DCM       CL2             6.5409718837       -0.9321291012       -7.1813708811  CLST      93              1.0000000000
       466        94  DCM       C              -4.8866073357        6.1193619199        6.4799526428  CLST      94              1.0000000000
       467        94  DCM       H1             -4.6583063293        5.7303679273        5.4658760540  CLST      94              1.0000000000
       468        94  DCM       H2             -5.5882277076        5.4455104453        7.0146314204  CLST      94              1.0000000000
       469        94  DCM       CL1            -3.3692160721        6.2371897754        7.4153625953  CLST      94              1.0000000000
       470        94  DCM       CL2            -5.6338195889        7.7352459456        6.3283143464  CLST      94              1.0000000000
       471        95  DCM       C              -7.5118703805        4.4429363872       -2.0016658338  CLST      95              1.0000000000
       472        95  DCM       H1             -6.9952000915        3.7735356957       -2.7196083299  CLST      95              1.0000000000
       473        95  DCM       H2             -7.8717563132        5.3629719945       -2.5076759022  CLST      95              1.0000000000
       474        95  DCM       CL1            -6.3730777531        4.8942303652       -0.6995113033  CLST      95              1.0000000000
       475        95  DCM       CL2            -8.9102846347        3.5785561157       -1.3060730959  CLST      95              1.0000000000
