* CHARMM CGENFF SD/ABNR BEFORE MLPOT (MM ONLY)
*  DATE:     6/28/26      1:57:13      CREATED BY USER: boittier
*
       460  EXT
         1         1  DCM       C               6.8128035937       -7.1267698857      -10.0568925808  CLST      1               1.0000000000
         2         1  DCM       H1              6.6223233543       -8.1330858062       -9.6291041432  CLST      1               1.0000000000
         3         1  DCM       H2              7.3550726157       -7.1968448711      -11.0239784252  CLST      1               1.0000000000
         4         1  DCM       CL1             5.2534812977       -6.2945081725      -10.3230694421  CLST      1               1.0000000000
         5         1  DCM       CL2             7.8069399991       -6.1896737816       -8.9080715886  CLST      1               1.0000000000
         6         2  DCM       C               6.2554259136       -0.7190792927        9.5289284862  CLST      2               1.0000000000
         7         2  DCM       H1              6.5340271972       -1.5559469989       10.2031454152  CLST      2               1.0000000000
         8         2  DCM       H2              5.2401320339       -0.8683348403        9.1058878216  CLST      2               1.0000000000
         9         2  DCM       CL1             6.2746456139        0.8032676501       10.4604432894  CLST      2               1.0000000000
        10         2  DCM       CL2             7.4392524535       -0.6332239812        8.1923956932  CLST      2               1.0000000000
        11         3  DCM       C               9.0437086028        7.2827564388       -2.4882614246  CLST      3               1.0000000000
        12         3  DCM       H1             10.0601755630        7.6674280466       -2.7151363171  CLST      3               1.0000000000
        13         3  DCM       H2              8.5169151378        7.9421459042       -1.7667734458  CLST      3               1.0000000000
        14         3  DCM       CL1             8.1020654047        7.2075674892       -4.0061813296  CLST      3               1.0000000000
        15         3  DCM       CL2             9.1879768309        5.6497949479       -1.7765944051  CLST      3               1.0000000000
        16         4  DCM       C              10.2515900442       -2.1350045864       -0.8970463069  CLST      4               1.0000000000
        17         4  DCM       H1              9.5860491457       -2.4529074158       -0.0688232748  CLST      4               1.0000000000
        18         4  DCM       H2             10.4538458002       -1.0459911933       -0.8612139252  CLST      4               1.0000000000
        19         4  DCM       CL1            11.8006052973       -3.0128189849       -0.7589403745  CLST      4               1.0000000000
        20         4  DCM       CL2             9.4604031595       -2.5123566929       -2.4506023964  CLST      4               1.0000000000
        21         5  DCM       C             -11.2853825342        6.2338294311      -13.2458252588  CLST      5               1.0000000000
        22         5  DCM       H1            -10.2624540288        6.6579897618      -13.3071439365  CLST      5               1.0000000000
        23         5  DCM       H2            -11.2634295156        5.2255148860      -12.7836601866  CLST      5               1.0000000000
        24         5  DCM       CL1           -12.3008211444        7.3152027507      -12.2491876570  CLST      5               1.0000000000
        25         5  DCM       CL2           -11.9649523612        6.1089745916      -14.8941564911  CLST      5               1.0000000000
        26         6  DCM       C               4.4644659110       -2.6881670468       -8.8664285132  CLST      6               1.0000000000
        27         6  DCM       H1              3.9518578534       -2.4835138094       -7.9025073686  CLST      6               1.0000000000
        28         6  DCM       H2              4.0786485385       -3.6195716484       -9.3317850041  CLST      6               1.0000000000
        29         6  DCM       CL1             4.1739818099       -1.3266004957       -9.9859216720  CLST      6               1.0000000000
        30         6  DCM       CL2             6.2175298835       -2.8695858252       -8.5720369516  CLST      6               1.0000000000
        31         7  DCM       C               3.4433326392       -7.3045498220       -7.4630036090  CLST      7               1.0000000000
        32         7  DCM       H1              2.9852751976       -7.6422910449       -8.4160681532  CLST      7               1.0000000000
        33         7  DCM       H2              4.5335804942       -7.5093160471       -7.4506553173  CLST      7               1.0000000000
        34         7  DCM       CL1             3.1866827563       -5.5469881493       -7.2852598306  CLST      7               1.0000000000
        35         7  DCM       CL2             2.6706587398       -8.1699628382       -6.1057617393  CLST      7               1.0000000000
        36         8  DCM       C               1.7369063611       -4.7959900762        4.7508719991  CLST      8               1.0000000000
        37         8  DCM       H1              2.3291348176       -3.9355164234        4.3747174914  CLST      8               1.0000000000
        38         8  DCM       H2              1.6461268193       -5.5847873347        3.9749064810  CLST      8               1.0000000000
        39         8  DCM       CL1             2.5554473079       -5.4919802686        6.1745073263  CLST      8               1.0000000000
        40         8  DCM       CL2             0.1056329121       -4.2323745011        5.2174672627  CLST      8               1.0000000000
        41         9  DCM       C              10.8746579289       -1.8175461058        4.2496696880  CLST      9               1.0000000000
        42         9  DCM       H1             11.9279929615       -2.1039515073        4.4538664320  CLST      9               1.0000000000
        43         9  DCM       H2             10.7916129787       -0.7300384548        4.0396041843  CLST      9               1.0000000000
        44         9  DCM       CL1             9.8763964330       -2.2175783170        5.6786213815  CLST      9               1.0000000000
        45         9  DCM       CL2            10.2887499554       -2.7294351233        2.8284512868  CLST      9               1.0000000000
        46        10  DCM       C              10.7728528708       -6.1564786072        0.6841410519  CLST      10              1.0000000000
        47        10  DCM       H1             11.0397037649       -5.5363999992        1.5651174335  CLST      10              1.0000000000
        48        10  DCM       H2             11.5471610953       -6.0854599931       -0.1097951493  CLST      10              1.0000000000
        49        10  DCM       CL1            10.6008892812       -7.8613302250        1.1945753166  CLST      10              1.0000000000
        50        10  DCM       CL2             9.2224648746       -5.5689824290        0.0260552635  CLST      10              1.0000000000
        51        11  DCM       C              13.1242199461       -8.3945091474       13.3463311152  CLST      11              1.0000000000
        52        11  DCM       H1             12.3809605216       -9.1344216893       12.9809714083  CLST      11              1.0000000000
        53        11  DCM       H2             14.0488077415       -8.8969722098       13.7013392703  CLST      11              1.0000000000
        54        11  DCM       CL1            13.5430903243       -7.2838105689       12.0091889861  CLST      11              1.0000000000
        55        11  DCM       CL2            12.4089260383       -7.4716629989       14.7004775123  CLST      11              1.0000000000
        56        12  DCM       C              -9.9710800364       -1.2103757538       -5.7047922315  CLST      12              1.0000000000
        57        12  DCM       H1             -9.3276936132       -2.0631704972       -5.4013025867  CLST      12              1.0000000000
        58        12  DCM       H2             -9.5142679770       -0.6428400895       -6.5429413494  CLST      12              1.0000000000
        59        12  DCM       CL1           -11.5633760167       -1.8362694224       -6.2233099130  CLST      12              1.0000000000
        60        12  DCM       CL2           -10.1786529621       -0.1146519239       -4.3082254335  CLST      12              1.0000000000
        61        13  DCM       C               9.5599373850       -9.2650832165       -5.5963384663  CLST      13              1.0000000000
        62        13  DCM       H1              8.5118653441       -9.0892813815       -5.2770375401  CLST      13              1.0000000000
        63        13  DCM       H2             10.2183930288       -9.4454445289       -4.7208258764  CLST      13              1.0000000000
        64        13  DCM       CL1            10.1391858404       -7.8245110487       -6.4759531972  CLST      13              1.0000000000
        65        13  DCM       CL2             9.6084938373      -10.6913223695       -6.6710964106  CLST      13              1.0000000000
        66        14  DCM       C               8.5032591420       -9.2567813924       -1.5932839069  CLST      14              1.0000000000
        67        14  DCM       H1              7.8359454508       -9.2656504997       -0.7054030306  CLST      14              1.0000000000
        68        14  DCM       H2              9.5697890457       -9.1817959160       -1.2931679319  CLST      14              1.0000000000
        69        14  DCM       CL1             8.2634487745      -10.7627162674       -2.5256520029  CLST      14              1.0000000000
        70        14  DCM       CL2             8.0882648297       -7.8498328280       -2.6092746841  CLST      14              1.0000000000
        71        15  DCM       C              -0.0616924582        3.8338418740        8.4486914229  CLST      15              1.0000000000
        72        15  DCM       H1              0.6342017883        2.9778047589        8.5623409244  CLST      15              1.0000000000
        73        15  DCM       H2             -0.7293990052        3.6845774350        7.5749003747  CLST      15              1.0000000000
        74        15  DCM       CL1            -1.0509767005        3.9678919897        9.9306864186  CLST      15              1.0000000000
        75        15  DCM       CL2             0.8857102460        5.3306429610        8.2122916948  CLST      15              1.0000000000
        76        16  DCM       C              -0.9703314679        0.2599982599        6.6156293050  CLST      16              1.0000000000
        77        16  DCM       H1             -1.4807680809        0.8387603978        5.8168746066  CLST      16              1.0000000000
        78        16  DCM       H2             -1.0327826850       -0.8311258768        6.4212043103  CLST      16              1.0000000000
        79        16  DCM       CL1             0.7466137814        0.7353195331        6.6688127868  CLST      16              1.0000000000
        80        16  DCM       CL2            -1.7374357903        0.6234329773        8.1869285395  CLST      16              1.0000000000
        81        17  DCM       C              -0.3002648648       -7.0624918978       -2.7021213873  CLST      17              1.0000000000
        82        17  DCM       H1             -0.1703782445       -6.2468530486       -3.4426535756  CLST      17              1.0000000000
        83        17  DCM       H2             -1.3574171547       -7.1339596100       -2.3713081064  CLST      17              1.0000000000
        84        17  DCM       CL1             0.1922778419       -8.6076498308       -3.4517743603  CLST      17              1.0000000000
        85        17  DCM       CL2             0.7255747571       -6.7264905567       -1.2821284428  CLST      17              1.0000000000
        86        18  DCM       C              -8.7103285058      -11.0147853479       -8.2527515067  CLST      18              1.0000000000
        87        18  DCM       H1             -8.9339069624      -11.5919422587       -9.1746698041  CLST      18              1.0000000000
        88        18  DCM       H2             -7.6148746739      -10.9036797350       -8.1060844842  CLST      18              1.0000000000
        89        18  DCM       CL1            -9.4466824567       -9.3920302607       -8.3904630096  CLST      18              1.0000000000
        90        18  DCM       CL2            -9.4023605935      -11.8747021244       -6.8466936100  CLST      18              1.0000000000
        91        19  DCM       C               1.0466790006        3.6700056998        0.8758840305  CLST      19              1.0000000000
        92        19  DCM       H1             -0.0380222283        3.4345490292        0.9108563445  CLST      19              1.0000000000
        93        19  DCM       H2              1.6176912832        3.0339064222        1.5838622632  CLST      19              1.0000000000
        94        19  DCM       CL1             1.2842030169        5.3837386905        1.3153112196  CLST      19              1.0000000000
        95        19  DCM       CL2             1.6528849351        3.3859928615       -0.7794368459  CLST      19              1.0000000000
        96        20  DCM       C               5.5599747541        3.7873463126       -2.1282116464  CLST      20              1.0000000000
        97        20  DCM       H1              6.5520146950        3.4520839617       -2.4959561736  CLST      20              1.0000000000
        98        20  DCM       H2              5.4044774900        3.4890912593       -1.0715197098  CLST      20              1.0000000000
        99        20  DCM       CL1             5.4720504784        5.5653526500       -2.2463747821  CLST      20              1.0000000000
       100        20  DCM       CL2             4.2799015380        3.0493215884       -3.1308819285  CLST      20              1.0000000000
       101        21  DCM       C               5.5201400270        9.3647418609       -2.0926060678  CLST      21              1.0000000000
       102        21  DCM       H1              5.4368951826        8.4665527444       -2.7396305247  CLST      21              1.0000000000
       103        21  DCM       H2              4.5702129366        9.9400804843       -2.0904680724  CLST      21              1.0000000000
       104        21  DCM       CL1             5.8935770857        8.8471242474       -0.4231246190  CLST      21              1.0000000000
       105        21  DCM       CL2             6.8332250303       10.4074659949       -2.7116258841  CLST      21              1.0000000000
       106        22  DCM       C              -3.4059266336       -2.8134737701        7.5094856024  CLST      22              1.0000000000
       107        22  DCM       H1             -2.3060378019       -2.9641510517        7.5069430300  CLST      22              1.0000000000
       108        22  DCM       H2             -3.9397336223       -3.7815442344        7.4037671090  CLST      22              1.0000000000
       109        22  DCM       CL1            -3.8858277796       -2.0453277247        9.0515136540  CLST      22              1.0000000000
       110        22  DCM       CL2            -3.8516529124       -1.7584142276        6.1379035984  CLST      22              1.0000000000
       111        23  DCM       C               7.3004365581        4.3281023830        8.1501672119  CLST      23              1.0000000000
       112        23  DCM       H1              8.3779910700        4.4950232499        7.9466293175  CLST      23              1.0000000000
       113        23  DCM       H2              6.6908769500        5.1723870848        7.7688634675  CLST      23              1.0000000000
       114        23  DCM       CL1             6.7865265072        2.8223470530        7.3398641810  CLST      23              1.0000000000
       115        23  DCM       CL2             7.0554960812        4.1885305701        9.9137108998  CLST      23              1.0000000000
       116        24  DCM       C              -6.2844852222       10.1577221305      -12.7215165126  CLST      24              1.0000000000
       117        24  DCM       H1             -5.9826120692       11.2096472908      -12.9108228961  CLST      24              1.0000000000
       118        24  DCM       H2             -7.3898146003       10.0616051773      -12.6840704923  CLST      24              1.0000000000
       119        24  DCM       CL1            -5.6535953692        9.1231500412      -14.0361483608  CLST      24              1.0000000000
       120        24  DCM       CL2            -5.6048007211        9.6309655428      -11.1542911884  CLST      24              1.0000000000
       121        25  DCM       C               9.3874084675       10.6499588446        9.8038419239  CLST      25              1.0000000000
       122        25  DCM       H1              9.1662704547       11.5914448150       10.3495615226  CLST      25              1.0000000000
       123        25  DCM       H2              8.7950751897        9.8028371451       10.2100503073  CLST      25              1.0000000000
       124        25  DCM       CL1             8.9811901934       10.8699337941        8.0769234955  CLST      25              1.0000000000
       125        25  DCM       CL2            11.1268654909       10.2742122681        9.9727120433  CLST      25              1.0000000000
       126        26  DCM       C               4.2109717450       -0.5129896230        1.6749855354  CLST      26              1.0000000000
       127        26  DCM       H1              3.9759684819        0.0904667250        2.5758336848  CLST      26              1.0000000000
       128        26  DCM       H2              5.3071342247       -0.6343858398        1.5540692568  CLST      26              1.0000000000
       129        26  DCM       CL1             3.4703491777       -2.1300779131        1.8477791303  CLST      26              1.0000000000
       130        26  DCM       CL2             3.5532514923        0.3107511643        0.2306997418  CLST      26              1.0000000000
       131        27  DCM       C              -1.3359712058       -3.5112454468       -3.9463821089  CLST      27              1.0000000000
       132        27  DCM       H1             -1.5961280817       -2.5518067765       -4.4411237103  CLST      27              1.0000000000
       133        27  DCM       H2             -0.4531930216       -3.9801802681       -4.4284331704  CLST      27              1.0000000000
       134        27  DCM       CL1            -0.9591712353       -3.2003453451       -2.2291892326  CLST      27              1.0000000000
       135        27  DCM       CL2            -2.7259557305       -4.6277992761       -4.0644562058  CLST      27              1.0000000000
       136        28  DCM       C               7.8160820191        0.6487271951        4.4800364124  CLST      28              1.0000000000
       137        28  DCM       H1              8.8356826602        0.6189995323        4.0434488927  CLST      28              1.0000000000
       138        28  DCM       H2              7.8562073968        0.7407494138        5.5841992956  CLST      28              1.0000000000
       139        28  DCM       CL1             6.9463504653        2.0561344269        3.8114167476  CLST      28              1.0000000000
       140        28  DCM       CL2             6.9536410181       -0.8563842860        4.0567117263  CLST      28              1.0000000000
       141        29  DCM       C              -0.9606334575       -9.2431955342        3.5181493215  CLST      29              1.0000000000
       142        29  DCM       H1             -0.9077747313      -10.3117025234        3.8160507751  CLST      29              1.0000000000
       143        29  DCM       H2             -0.8194854234       -9.1261514512        2.4239823565  CLST      29              1.0000000000
       144        29  DCM       CL1             0.3273685354       -8.3361237773        4.3599870089  CLST      29              1.0000000000
       145        29  DCM       CL2            -2.5605790281       -8.5828418796        3.9626346381  CLST      29              1.0000000000
       146        30  DCM       C              -0.0655201656        5.1848678810        4.6094687473  CLST      30              1.0000000000
       147        30  DCM       H1             -0.4334818172        5.4412389355        5.6238198214  CLST      30              1.0000000000
       148        30  DCM       H2              0.5584440708        6.0041278629        4.1958943977  CLST      30              1.0000000000
       149        30  DCM       CL1             0.9228931937        3.7000117633        4.7034784795  CLST      30              1.0000000000
       150        30  DCM       CL2            -1.4660717812        4.9164804051        3.5321108989  CLST      30              1.0000000000
       151        31  DCM       C               4.3471902821        5.0270706585        5.3246629177  CLST      31              1.0000000000
       152        31  DCM       H1              4.3370514569        4.5170117933        6.3108118958  CLST      31              1.0000000000
       153        31  DCM       H2              3.9887799838        4.3498663938        4.5222129099  CLST      31              1.0000000000
       154        31  DCM       CL1             3.2765786028        6.4550856822        5.3923447551  CLST      31              1.0000000000
       155        31  DCM       CL2             6.0159920413        5.5418788891        4.9490364269  CLST      31              1.0000000000
       156        32  DCM       C               4.1934885412        0.1082776292        6.1584460092  CLST      32              1.0000000000
       157        32  DCM       H1              3.6850390466        0.2537780636        7.1340195827  CLST      32              1.0000000000
       158        32  DCM       H2              5.2942733340        0.0719346657        6.2884010251  CLST      32              1.0000000000
       159        32  DCM       CL1             3.6329262087       -1.4262721133        5.4374781764  CLST      32              1.0000000000
       160        32  DCM       CL2             3.7776008214        1.4672635587        5.0766093244  CLST      32              1.0000000000
       161        33  DCM       C               6.2513551948       -3.3159939210       -0.3350234497  CLST      33              1.0000000000
       162        33  DCM       H1              6.8680197515       -4.0405690898       -0.9049486240  CLST      33              1.0000000000
       163        33  DCM       H2              5.2337273534       -3.7157745451       -0.1439833431  CLST      33              1.0000000000
       164        33  DCM       CL1             7.0425064732       -2.9981855892        1.2299011850  CLST      33              1.0000000000
       165        33  DCM       CL2             6.1208860980       -1.8034767284       -1.2712750229  CLST      33              1.0000000000
       166        34  DCM       C              -7.5437311207        6.6588266390      -11.6052422172  CLST      34              1.0000000000
       167        34  DCM       H1             -6.6553927573        6.6395583164      -10.9395878006  CLST      34              1.0000000000
       168        34  DCM       H2             -7.3023622287        7.1345588292      -12.5786863415  CLST      34              1.0000000000
       169        34  DCM       CL1            -8.0842036850        4.9830505395      -11.8994814702  CLST      34              1.0000000000
       170        34  DCM       CL2            -8.8490547028        7.5859196882      -10.8119048413  CLST      34              1.0000000000
       171        35  DCM       C               7.8231392641        1.2316877433      -12.1948951715  CLST      35              1.0000000000
       172        35  DCM       H1              8.9242941589        1.3760017357      -12.2105180730  CLST      35              1.0000000000
       173        35  DCM       H2              7.4163213023        1.1335541304      -13.2235397341  CLST      35              1.0000000000
       174        35  DCM       CL1             7.0595916402        2.6393177330      -11.4006997388  CLST      35              1.0000000000
       175        35  DCM       CL2             7.4451076104       -0.2556388178      -11.2810195706  CLST      35              1.0000000000
       176        36  DCM       C             -11.2891130345        2.6398763047       -6.6626980043  CLST      36              1.0000000000
       177        36  DCM       H1            -11.5674306702        3.6885878680       -6.8997147722  CLST      36              1.0000000000
       178        36  DCM       H2            -11.3187584699        2.4566169577       -5.5677783774  CLST      36              1.0000000000
       179        36  DCM       CL1           -12.4401099714        1.5341053860       -7.4675584754  CLST      36              1.0000000000
       180        36  DCM       CL2            -9.6333311712        2.3307611579       -7.2611057163  CLST      36              1.0000000000
       181        37  DCM       C               3.6500584870       -8.8775474213       -2.0938816688  CLST      37              1.0000000000
       182        37  DCM       H1              3.1401463467       -8.2945929537       -1.2996344730  CLST      37              1.0000000000
       183        37  DCM       H2              2.9224814625       -9.4520705998       -2.7047269473  CLST      37              1.0000000000
       184        37  DCM       CL1             4.5328616243       -7.7481299331       -3.1560103163  CLST      37              1.0000000000
       185        37  DCM       CL2             4.7955769917      -10.0148571497       -1.3291513706  CLST      37              1.0000000000
       186        38  DCM       C               4.7206044454       -6.9648363656        1.3155422063  CLST      38              1.0000000000
       187        38  DCM       H1              4.3481353036       -8.0098276518        1.2741472461  CLST      38              1.0000000000
       188        38  DCM       H2              5.2639675194       -6.7746708304        2.2629448547  CLST      38              1.0000000000
       189        38  DCM       CL1             5.8344786265       -6.6933401971       -0.0509052580  CLST      38              1.0000000000
       190        38  DCM       CL2             3.3325562906       -5.8441609061        1.2081649911  CLST      38              1.0000000000
       191        39  DCM       C               9.7149503888        4.2909002926        3.3648840201  CLST      39              1.0000000000
       192        39  DCM       H1              8.7102495434        4.2816664189        2.8918413338  CLST      39              1.0000000000
       193        39  DCM       H2             10.3007816082        5.1743170893        3.0345954230  CLST      39              1.0000000000
       194        39  DCM       CL1             9.5165227673        4.3565790794        5.1392787275  CLST      39              1.0000000000
       195        39  DCM       CL2            10.5943388189        2.8003062040        2.9125781207  CLST      39              1.0000000000
       196        40  DCM       C             -12.9204637327        4.2128251726      -10.0657730917  CLST      40              1.0000000000
       197        40  DCM       H1            -13.2841958773        4.7015705799      -10.9944461476  CLST      40              1.0000000000
       198        40  DCM       H2            -13.1206068203        3.1208341052      -10.0849716447  CLST      40              1.0000000000
       199        40  DCM       CL1           -11.1593205998        4.4799509038       -9.9183993109  CLST      40              1.0000000000
       200        40  DCM       CL2           -13.7610564288        4.9339098488       -8.6632771280  CLST      40              1.0000000000
       201        41  DCM       C              -0.0491514715       -4.1926836113        1.3438483182  CLST      41              1.0000000000
       202        41  DCM       H1              0.7862107229       -3.7638355304        1.9370457281  CLST      41              1.0000000000
       203        41  DCM       H2              0.2127973347       -4.2414417507        0.2676302132  CLST      41              1.0000000000
       204        41  DCM       CL1            -0.3940582573       -5.8446929887        1.9303172770  CLST      41              1.0000000000
       205        41  DCM       CL2            -1.4971706872       -3.1641143798        1.5414070380  CLST      41              1.0000000000
       206        42  DCM       C               8.1550264638        0.0557611966       -4.6994079613  CLST      42              1.0000000000
       207        42  DCM       H1              8.3547853314        0.8130153695       -5.4854911808  CLST      42              1.0000000000
       208        42  DCM       H2              9.0751244310       -0.1827875651       -4.1278919536  CLST      42              1.0000000000
       209        42  DCM       CL1             6.9272240194        0.6965322405       -3.5765556799  CLST      42              1.0000000000
       210        42  DCM       CL2             7.5495045139       -1.4318062304       -5.4730644095  CLST      42              1.0000000000
       211        43  DCM       C               3.5451347400       -0.5888974881       -3.7869449832  CLST      43              1.0000000000
       212        43  DCM       H1              3.8135432125       -0.8243446181       -2.7366140031  CLST      43              1.0000000000
       213        43  DCM       H2              4.0081365596        0.3657694484       -4.1087169337  CLST      43              1.0000000000
       214        43  DCM       CL1             4.1132468056       -1.9034816490       -4.8604219587  CLST      43              1.0000000000
       215        43  DCM       CL2             1.7700905435       -0.4259949629       -3.8983706573  CLST      43              1.0000000000
       216        44  DCM       C              11.7630558648       -8.9722903351       -9.5263772041  CLST      44              1.0000000000
       217        44  DCM       H1             11.7252529012       -9.5002652573       -8.5499424771  CLST      44              1.0000000000
       218        44  DCM       H2             12.3348758745       -9.5584302997      -10.2762360550  CLST      44              1.0000000000
       219        44  DCM       CL1            12.5565231549       -7.3863096782       -9.2996917697  CLST      44              1.0000000000
       220        44  DCM       CL2            10.0950567632       -8.7355346948      -10.1238232751  CLST      44              1.0000000000
       221        45  DCM       C             -10.3568950405        0.7173819038      -10.6174351859  CLST      45              1.0000000000
       222        45  DCM       H1            -10.7792070662        0.3473084639      -11.5751242033  CLST      45              1.0000000000
       223        45  DCM       H2            -11.0550175646        1.4199924436      -10.1164968445  CLST      45              1.0000000000
       224        45  DCM       CL1           -10.0541080618       -0.6743609493       -9.5372303128  CLST      45              1.0000000000
       225        45  DCM       CL2            -8.8232861016        1.5698944593      -10.9519238000  CLST      45              1.0000000000
       226        46  DCM       C               5.1568148562        4.6568756781       -6.4318489202  CLST      46              1.0000000000
       227        46  DCM       H1              5.5983503193        3.9735289014       -5.6760039165  CLST      46              1.0000000000
       228        46  DCM       H2              4.7341242553        4.0862005493       -7.2855873719  CLST      46              1.0000000000
       229        46  DCM       CL1             3.8516354062        5.6082683739       -5.6691915216  CLST      46              1.0000000000
       230        46  DCM       CL2             6.4317538487        5.7511983476       -7.0406859316  CLST      46              1.0000000000
       231        47  DCM       C              -8.6107585003       -3.6853457186        7.5022885819  CLST      47              1.0000000000
       232        47  DCM       H1             -8.8517959101       -3.9588038377        8.5511658772  CLST      47              1.0000000000
       233        47  DCM       H2             -9.4583170451       -3.1507339762        7.0233663033  CLST      47              1.0000000000
       234        47  DCM       CL1            -7.1775041318       -2.6193637527        7.4967934782  CLST      47              1.0000000000
       235        47  DCM       CL2            -8.2604421791       -5.1730387608        6.5746856073  CLST      47              1.0000000000
       236        48  DCM       C              11.6470225671        2.2765636450       -1.0998560852  CLST      48              1.0000000000
       237        48  DCM       H1             11.3058701079        3.1654201526       -0.5288094896  CLST      48              1.0000000000
       238        48  DCM       H2             12.5045983983        2.5310601560       -1.7585423689  CLST      48              1.0000000000
       239        48  DCM       CL1            12.1568347341        1.0053959529        0.0505859884  CLST      48              1.0000000000
       240        48  DCM       CL2            10.3010880686        1.6818014667       -2.1163255901  CLST      48              1.0000000000
       241        49  DCM       C              -4.9427251791       -5.2341686600        4.8143326483  CLST      49              1.0000000000
       242        49  DCM       H1             -5.3710070505       -4.2972329487        5.2333106973  CLST      49              1.0000000000
       243        49  DCM       H2             -5.5698343022       -5.6226833405        3.9859899321  CLST      49              1.0000000000
       244        49  DCM       CL1            -3.2965198621       -4.9159272179        4.1958426803  CLST      49              1.0000000000
       245        49  DCM       CL2            -4.8634756691       -6.4614541713        6.1095900636  CLST      49              1.0000000000
       246        50  DCM       C             -10.0858514612       -7.2485104625       -5.5320370606  CLST      50              1.0000000000
       247        50  DCM       H1            -10.8498895214       -7.2071775749       -6.3367195709  CLST      50              1.0000000000
       248        50  DCM       H2             -9.0621341763       -7.1588099380       -5.9530491764  CLST      50              1.0000000000
       249        50  DCM       CL1           -10.3643343152       -5.9012406075       -4.3896125522  CLST      50              1.0000000000
       250        50  DCM       CL2           -10.2295474584       -8.8119947852       -4.6772775167  CLST      50              1.0000000000
       251        51  DCM       C              11.8178325443       -0.7442784503       -5.3713109255  CLST      51              1.0000000000
       252        51  DCM       H1             10.9036781662       -1.3728191435       -5.4289951081  CLST      51              1.0000000000
       253        51  DCM       H2             12.6042943706       -1.1245495294       -6.0566050686  CLST      51              1.0000000000
       254        51  DCM       CL1            11.4114344490        0.9356689658       -5.8286038090  CLST      51              1.0000000000
       255        51  DCM       CL2            12.4454649108       -0.7752424213       -3.6986322961  CLST      51              1.0000000000
       256        52  DCM       C               7.3926688748        1.3216171858        0.3054014131  CLST      52              1.0000000000
       257        52  DCM       H1              6.4865597119        1.3412135017        0.9436375254  CLST      52              1.0000000000
       258        52  DCM       H2              7.1489176116        0.9845091877       -0.7229150212  CLST      52              1.0000000000
       259        52  DCM       CL1             8.5841762344        0.2018084212        1.0193417755  CLST      52              1.0000000000
       260        52  DCM       CL2             8.0857996355        2.9638719907        0.2388390450  CLST      52              1.0000000000
       261        53  DCM       C              10.8345881839       -5.6578649124       -3.4880420254  CLST      53              1.0000000000
       262        53  DCM       H1             10.3435478907       -5.2231421966       -2.5941232071  CLST      53              1.0000000000
       263        53  DCM       H2             10.0946414305       -5.8186492382       -4.3002312572  CLST      53              1.0000000000
       264        53  DCM       CL1            12.1035897950       -4.5353593256       -4.0586405507  CLST      53              1.0000000000
       265        53  DCM       CL2            11.5720453417       -7.2220113504       -3.0353934562  CLST      53              1.0000000000
       266        54  DCM       C              10.7672449342       -0.0089872151       -9.3514675171  CLST      54              1.0000000000
       267        54  DCM       H1             10.7790367543       -0.4570598805      -10.3668655056  CLST      54              1.0000000000
       268        54  DCM       H2             11.7329565243       -0.1741168552       -8.8282069241  CLST      54              1.0000000000
       269        54  DCM       CL1             9.4576981042       -0.7641116997       -8.3996845691  CLST      54              1.0000000000
       270        54  DCM       CL2            10.4775042199        1.7488197404       -9.4934708642  CLST      54              1.0000000000
       271        55  DCM       C               1.3072167825       -2.5747223163        8.3070789997  CLST      55              1.0000000000
       272        55  DCM       H1              0.2817586178       -2.1612372689        8.2077489952  CLST      55              1.0000000000
       273        55  DCM       H2              1.7529811939       -2.7835149967        7.3121645482  CLST      55              1.0000000000
       274        55  DCM       CL1             2.3331121962       -1.3883134186        9.1622179510  CLST      55              1.0000000000
       275        55  DCM       CL2             1.2335952878       -4.0949369953        9.2428532823  CLST      55              1.0000000000
       276        56  DCM       C              -3.2611476346       -4.6644149343       -8.4674100042  CLST      56              1.0000000000
       277        56  DCM       H1             -3.9774691647       -4.2525609122       -9.2090343928  CLST      56              1.0000000000
       278        56  DCM       H2             -2.4177007489       -5.1840783041       -8.9697983438  CLST      56              1.0000000000
       279        56  DCM       CL1            -2.6043291858       -3.3205008498       -7.4900065955  CLST      56              1.0000000000
       280        56  DCM       CL2            -4.1269433195       -5.8187703251       -7.4103097322  CLST      56              1.0000000000
       281        57  DCM       C              -3.2092157812       -8.2294743487       -4.8228083164  CLST      57              1.0000000000
       282        57  DCM       H1             -2.3695857577       -7.5082453745       -4.7533671482  CLST      57              1.0000000000
       283        57  DCM       H2             -4.1416490965       -7.7192638372       -5.1395044011  CLST      57              1.0000000000
       284        57  DCM       CL1            -2.7935253664       -9.4889948817       -6.0190883609  CLST      57              1.0000000000
       285        57  DCM       CL2            -3.4708749637       -8.9798245322       -3.2234366211  CLST      57              1.0000000000
       286        58  DCM       C               5.0508674896        7.8313637624        8.1925351026  CLST      58              1.0000000000
       287        58  DCM       H1              4.2632372365        8.5601576580        7.9063806496  CLST      58              1.0000000000
       288        58  DCM       H2              5.6278422022        7.4998539797        7.3035675709  CLST      58              1.0000000000
       289        58  DCM       CL1             6.1668909661        8.6030124669        9.3548152002  CLST      58              1.0000000000
       290        58  DCM       CL2             4.2798722460        6.4090173497        8.9516784088  CLST      58              1.0000000000
       291        59  DCM       C               1.9445030150       -8.0010263397        8.9075767037  CLST      59              1.0000000000
       292        59  DCM       H1              1.1653223933       -8.4228027276        9.5773119810  CLST      59              1.0000000000
       293        59  DCM       H2              1.6712637709       -6.9781852781        8.5753427709  CLST      59              1.0000000000
       294        59  DCM       CL1             3.5024668056       -7.9314488546        9.7813209250  CLST      59              1.0000000000
       295        59  DCM       CL2             2.1057075336       -9.0533110008        7.4728727068  CLST      59              1.0000000000
       296        60  DCM       C               9.7760065053        4.3590468572       -5.7017261270  CLST      60              1.0000000000
       297        60  DCM       H1              9.4892972050        5.3777098612       -6.0385518674  CLST      60              1.0000000000
       298        60  DCM       H2              9.9597351173        3.6876905209       -6.5672060073  CLST      60              1.0000000000
       299        60  DCM       CL1            11.2661616391        4.4689209422       -4.7207137032  CLST      60              1.0000000000
       300        60  DCM       CL2             8.4530271451        3.6824941308       -4.7104975534  CLST      60              1.0000000000
       301        61  DCM       C              -6.6380430990      -10.2546867078       -4.9192543643  CLST      61              1.0000000000
       302        61  DCM       H1             -7.6835309733      -10.5630279536       -4.7074971793  CLST      61              1.0000000000
       303        61  DCM       H2             -6.1069488063       -9.9810257155       -3.9838017330  CLST      61              1.0000000000
       304        61  DCM       CL1            -6.6556384717       -8.8436698896       -6.0168789332  CLST      61              1.0000000000
       305        61  DCM       CL2            -5.7789244186      -11.6149478361       -5.6973064194  CLST      61              1.0000000000
       306        62  DCM       C              -6.5292447873       -6.7628142048        9.5806270287  CLST      62              1.0000000000
       307        62  DCM       H1             -6.0606372214       -7.5493057000       10.2094125667  CLST      62              1.0000000000
       308        62  DCM       H2             -6.6806671484       -7.1206478933        8.5404439308  CLST      62              1.0000000000
       309        62  DCM       CL1            -8.1141009839       -6.3214520927       10.2809617639  CLST      62              1.0000000000
       310        62  DCM       CL2            -5.4613482141       -5.3301654637        9.5518556516  CLST      62              1.0000000000
       311        63  DCM       C              10.2438154359        1.7810210657        8.6094310647  CLST      63              1.0000000000
       312        63  DCM       H1              9.1620548111        1.8058493574        8.8605164205  CLST      63              1.0000000000
       313        63  DCM       H2             10.7855025844        1.0594926099        9.2566166671  CLST      63              1.0000000000
       314        63  DCM       CL1            10.4392003022        1.2895759516        6.9012609104  CLST      63              1.0000000000
       315        63  DCM       CL2            10.9331113480        3.4123271472        8.8514512664  CLST      63              1.0000000000
       316        64  DCM       C               6.1103680361        0.9692921250       -8.0876298470  CLST      64              1.0000000000
       317        64  DCM       H1              5.6588119478        1.1484982620       -9.0859171285  CLST      64              1.0000000000
       318        64  DCM       H2              6.5894099968       -0.0305650371       -8.0422151667  CLST      64              1.0000000000
       319        64  DCM       CL1             7.3457803164        2.2200127478       -7.7764373152  CLST      64              1.0000000000
       320        64  DCM       CL2             4.8302343775        1.0563372996       -6.8455292760  CLST      64              1.0000000000
       321        65  DCM       C              -5.6469243163        0.9959870707        7.9900016298  CLST      65              1.0000000000
       322        65  DCM       H1             -4.7243639095        0.8204712869        7.4000316165  CLST      65              1.0000000000
       323        65  DCM       H2             -6.1584858340        0.0401555232        8.2284372959  CLST      65              1.0000000000
       324        65  DCM       CL1            -5.2025772174        1.8066906212        9.5185302969  CLST      65              1.0000000000
       325        65  DCM       CL2            -6.7547494821        2.0390296790        7.0498999415  CLST      65              1.0000000000
       326        66  DCM       C              10.0627557693        7.1222876440        7.9128134347  CLST      66              1.0000000000
       327        66  DCM       H1             10.5827994480        6.2030280408        7.5684915799  CLST      66              1.0000000000
       328        66  DCM       H2             10.7406845917        8.0009801356        7.8782180671  CLST      66              1.0000000000
       329        66  DCM       CL1             8.6583005660        7.4306792944        6.8506661521  CLST      66              1.0000000000
       330        66  DCM       CL2             9.5095811575        6.8825703425        9.5954798475  CLST      66              1.0000000000
       331        67  DCM       C              -9.0562376010       11.3305026952      -10.2299267967  CLST      67              1.0000000000
       332        67  DCM       H1             -9.7147820373       11.6528350753       -9.3958956944  CLST      67              1.0000000000
       333        67  DCM       H2             -8.4963998380       10.4095236425       -9.9628665304  CLST      67              1.0000000000
       334        67  DCM       CL1           -10.0624383636       11.0045428012      -11.6714253363  CLST      67              1.0000000000
       335        67  DCM       CL2            -7.8878998747       12.6353195380      -10.5887469591  CLST      67              1.0000000000
       336        68  DCM       C               3.2347647573        3.0894469778       10.3021445906  CLST      68              1.0000000000
       337        68  DCM       H1              4.2009054818        3.0428864253       10.8478272697  CLST      68              1.0000000000
       338        68  DCM       H2              2.7650470662        4.0905384311       10.4061481550  CLST      68              1.0000000000
       339        68  DCM       CL1             3.5292307240        2.7610479175        8.5714084361  CLST      68              1.0000000000
       340        68  DCM       CL2             2.1263209513        1.8555437183       10.9669243445  CLST      68              1.0000000000
       341        69  DCM       C               4.7516566048        5.3625803281        1.4778913696  CLST      69              1.0000000000
       342        69  DCM       H1              4.2688003903        5.6519625418        0.5210877403  CLST      69              1.0000000000
       343        69  DCM       H2              4.2760798862        5.8827040724        2.3355768417  CLST      69              1.0000000000
       344        69  DCM       CL1             4.5839590065        3.5972812120        1.7045679751  CLST      69              1.0000000000
       345        69  DCM       CL2             6.4802112443        5.8097425640        1.4138898683  CLST      69              1.0000000000
       346        70  DCM       C              -1.9431047233        6.6481163852       -0.0470434632  CLST      70              1.0000000000
       347        70  DCM       H1             -1.5252946341        6.4812302846        0.9678554534  CLST      70              1.0000000000
       348        70  DCM       H2             -3.0315699307        6.8633106460        0.0006331187  CLST      70              1.0000000000
       349        70  DCM       CL1            -1.1069726586        8.0385165051       -0.7967450278  CLST      70              1.0000000000
       350        70  DCM       CL2            -1.6827565547        5.1807017955       -1.0342348434  CLST      70              1.0000000000
       351        71  DCM       C               6.2129226648       -5.0583552087       -5.2484240043  CLST      71              1.0000000000
       352        71  DCM       H1              6.5300410797       -4.3454745318       -6.0364047556  CLST      71              1.0000000000
       353        71  DCM       H2              5.1113579334       -5.0453050791       -5.1091517733  CLST      71              1.0000000000
       354        71  DCM       CL1             6.7206134335       -6.7046921043       -5.7133478457  CLST      71              1.0000000000
       355        71  DCM       CL2             6.9916848787       -4.6049565258       -3.7095553847  CLST      71              1.0000000000
       356        72  DCM       C              -9.5281253403       -4.3709593635       -7.8177834046  CLST      72              1.0000000000
       357        72  DCM       H1             -9.5568203120       -3.4263728141       -8.4001031266  CLST      72              1.0000000000
       358        72  DCM       H2            -10.3665996209       -4.4154934602       -7.0906335973  CLST      72              1.0000000000
       359        72  DCM       CL1            -9.6622091197       -5.7568328218       -8.9382934071  CLST      72              1.0000000000
       360        72  DCM       CL2            -7.9807853329       -4.4592603911       -6.9259342507  CLST      72              1.0000000000
       361        73  DCM       C               1.8598407119        6.6745572853       -2.6092294920  CLST      73              1.0000000000
       362        73  DCM       H1              2.5489859209        5.8954829833       -2.9976518472  CLST      73              1.0000000000
       363        73  DCM       H2              0.8920905688        6.2279789913       -2.2985277623  CLST      73              1.0000000000
       364        73  DCM       CL1             2.6110888123        7.4760045344       -1.2009989341  CLST      73              1.0000000000
       365        73  DCM       CL2             1.5583981161        7.8816795560       -3.8912234589  CLST      73              1.0000000000
       366        74  DCM       C               5.3148928820       -8.7198704684        5.4417226309  CLST      74              1.0000000000
       367        74  DCM       H1              6.2148167705       -8.9125261528        4.8192483424  CLST      74              1.0000000000
       368        74  DCM       H2              5.0406025345       -9.6139606063        6.0399371104  CLST      74              1.0000000000
       369        74  DCM       CL1             5.6566854758       -7.3614268123        6.5516609898  CLST      74              1.0000000000
       370        74  DCM       CL2             3.9468590373       -8.3006252633        4.3717637384  CLST      74              1.0000000000
       371        75  DCM       C               4.9963677143       -4.7448001355        8.9293114756  CLST      75              1.0000000000
       372        75  DCM       H1              4.0555655196       -5.2667895359        8.6589399698  CLST      75              1.0000000000
       373        75  DCM       H2              5.8366999478       -5.4637389310        9.0292568740  CLST      75              1.0000000000
       374        75  DCM       CL1             5.3867718998       -3.5638388353        7.6477073599  CLST      75              1.0000000000
       375        75  DCM       CL2             4.7602632427       -3.9023471646       10.4869128174  CLST      75              1.0000000000
       376        76  DCM       C               5.1695800643        8.9115515488       -5.9628193081  CLST      76              1.0000000000
       377        76  DCM       H1              5.3709935361        8.1669588302       -5.1639840137  CLST      76              1.0000000000
       378        76  DCM       H2              4.6638821892        8.4388613466       -6.8312870865  CLST      76              1.0000000000
       379        76  DCM       CL1             4.1159740383       10.1975902694       -5.3082650293  CLST      76              1.0000000000
       380        76  DCM       CL2             6.7208708282        9.6136179396       -6.5059174704  CLST      76              1.0000000000
       381        77  DCM       C             -11.3780459080        2.4220251482      -14.7134039614  CLST      77              1.0000000000
       382        77  DCM       H1            -11.8827203512        3.0744773973      -15.4571760536  CLST      77              1.0000000000
       383        77  DCM       H2            -11.3308113662        1.3711250057      -15.0696762123  CLST      77              1.0000000000
       384        77  DCM       CL1            -9.7151058495        3.0216621915      -14.4524570643  CLST      77              1.0000000000
       385        77  DCM       CL2           -12.2903461200        2.4782490825      -13.1768459953  CLST      77              1.0000000000
       386        78  DCM       C              -0.5442022907       -7.3831177151       -7.7679017376  CLST      78              1.0000000000
       387        78  DCM       H1             -1.6251195887       -7.5519931846       -7.9554198275  CLST      78              1.0000000000
       388        78  DCM       H2             -0.0464361672       -8.3179933399       -7.4334299796  CLST      78              1.0000000000
       389        78  DCM       CL1             0.2225134561       -6.8190264719       -9.2800917657  CLST      78              1.0000000000
       390        78  DCM       CL2            -0.3640385410       -6.1423116082       -6.4951946715  CLST      78              1.0000000000
       391        79  DCM       C               0.7883935455       -1.9481264233       -8.1560857533  CLST      79              1.0000000000
       392        79  DCM       H1             -0.2025590285       -1.4475688191       -8.1419737629  CLST      79              1.0000000000
       393        79  DCM       H2              1.6030961993       -1.2182204887       -8.3469386567  CLST      79              1.0000000000
       394        79  DCM       CL1             1.0655953912       -2.7244739927       -6.5732574971  CLST      79              1.0000000000
       395        79  DCM       CL2             0.7969693742       -3.1888294701       -9.4424651183  CLST      79              1.0000000000
       396        80  DCM       C              -1.2880985071       -6.9551848498        7.1077368579  CLST      80              1.0000000000
       397        80  DCM       H1             -1.8613258275       -6.7221179454        6.1860346036  CLST      80              1.0000000000
       398        80  DCM       H2             -0.1976473533       -6.8508883250        6.9301387052  CLST      80              1.0000000000
       399        80  DCM       CL1            -1.6411731219       -8.6336072398        7.6127768317  CLST      80              1.0000000000
       400        80  DCM       CL2            -1.7787907074       -5.8205678797        8.3954959958  CLST      80              1.0000000000
       401        81  DCM       C              -7.3073361766       -7.0065163020       -2.7106565115  CLST      81              1.0000000000
       402        81  DCM       H1             -7.8655167601       -7.6130190593       -3.4526822904  CLST      81              1.0000000000
       403        81  DCM       H2             -7.9848384893       -6.3107983782       -2.1716184462  CLST      81              1.0000000000
       404        81  DCM       CL1            -6.5370084550       -8.1047867967       -1.5303026999  CLST      81              1.0000000000
       405        81  DCM       CL2            -6.0589192080       -6.0576037750       -3.5667787525  CLST      81              1.0000000000
       406        82  DCM       C               7.1488447954       -4.6477880156        4.4333535832  CLST      82              1.0000000000
       407        82  DCM       H1              7.2824235240       -4.8179005283        5.5223329383  CLST      82              1.0000000000
       408        82  DCM       H2              7.6739983391       -3.7256693367        4.1081530006  CLST      82              1.0000000000
       409        82  DCM       CL1             7.8191331696       -6.0410442498        3.5355281924  CLST      82              1.0000000000
       410        82  DCM       CL2             5.4048845419       -4.4774783699        4.0785580369  CLST      82              1.0000000000
       411        83  DCM       C              11.0204573311       -4.6221863626       -7.5486726234  CLST      83              1.0000000000
       412        83  DCM       H1             10.6607402407       -5.2301435744       -8.4047797186  CLST      83              1.0000000000
       413        83  DCM       H2             11.6323555005       -5.2387602924       -6.8575963337  CLST      83              1.0000000000
       414        83  DCM       CL1             9.6075745974       -3.9804810068       -6.6646689550  CLST      83              1.0000000000
       415        83  DCM       CL2            12.0195100214       -3.2737177403       -8.1610758400  CLST      83              1.0000000000
       416        84  DCM       C               0.7336321541      -10.2592428158       -0.1152223515  CLST      84              1.0000000000
       417        84  DCM       H1              0.0363321336       -9.5254652617       -0.5705005473  CLST      84              1.0000000000
       418        84  DCM       H2              1.3730647165      -10.7346998967       -0.8884272757  CLST      84              1.0000000000
       419        84  DCM       CL1             1.7756520396       -9.4143276401        1.0667264767  CLST      84              1.0000000000
       420        84  DCM       CL2            -0.2189458319      -11.5260824319        0.7105714033  CLST      84              1.0000000000
       421        85  DCM       C              -8.8291822577        7.9550272080      -16.0411941064  CLST      85              1.0000000000
       422        85  DCM       H1             -9.7263284987        7.7041113584      -16.6460740807  CLST      85              1.0000000000
       423        85  DCM       H2             -8.0634213102        8.4750143445      -16.6549913257  CLST      85              1.0000000000
       424        85  DCM       CL1            -9.3187584639        9.0253387899      -14.6960353289  CLST      85              1.0000000000
       425        85  DCM       CL2            -8.1262807872        6.4448457631      -15.3921688303  CLST      85              1.0000000000
       426        86  DCM       C               5.9506688966      -10.5349180975       -5.3490101487  CLST      86              1.0000000000
       427        86  DCM       H1              6.7207468262      -11.3194371737       -5.1915199364  CLST      86              1.0000000000
       428        86  DCM       H2              6.1458200914       -9.6505720478       -4.7064853725  CLST      86              1.0000000000
       429        86  DCM       CL1             4.3463640942      -11.2069658233       -4.9388001974  CLST      86              1.0000000000
       430        86  DCM       CL2             5.9798569450      -10.0289479639       -7.0638823021  CLST      86              1.0000000000
       431        87  DCM       C               0.6277587262        0.3963124108        2.7029738637  CLST      87              1.0000000000
       432        87  DCM       H1              1.4205020004        1.0477274297        3.1277429351  CLST      87              1.0000000000
       433        87  DCM       H2              0.8342993039        0.1528190181        1.6390086743  CLST      87              1.0000000000
       434        87  DCM       CL1             0.5638333047       -1.1203247185        3.6409930740  CLST      87              1.0000000000
       435        87  DCM       CL2            -0.9456004199        1.2362004855        2.8146124606  CLST      87              1.0000000000
       436        88  DCM       C               3.3564781635       -4.4409649308       -2.3852998783  CLST      88              1.0000000000
       437        88  DCM       H1              4.3280215631       -4.0164105907       -2.7117541610  CLST      88              1.0000000000
       438        88  DCM       H2              3.5036383711       -5.3558775352       -1.7748667312  CLST      88              1.0000000000
       439        88  DCM       CL1             2.4944539467       -3.2225325064       -1.4053469231  CLST      88              1.0000000000
       440        88  DCM       CL2             2.3901434949       -4.8536483929       -3.8301396037  CLST      88              1.0000000000
       441        89  DCM       C              -3.5700352648       -6.9535769347        0.6184218917  CLST      89              1.0000000000
       442        89  DCM       H1             -3.2517101147       -6.5670465467        1.6095660492  CLST      89              1.0000000000
       443        89  DCM       H2             -4.6424999193       -7.2388849828        0.6277483110  CLST      89              1.0000000000
       444        89  DCM       CL1            -3.3183624950       -5.6811306924       -0.6098542851  CLST      89              1.0000000000
       445        89  DCM       CL2            -2.5879108704       -8.3889135963        0.2075603606  CLST      89              1.0000000000
       446        90  DCM       C               1.3330332339        9.2661106610        1.9309155027  CLST      90              1.0000000000
       447        90  DCM       H1              1.1699321559        9.1143280308        0.8434183150  CLST      90              1.0000000000
       448        90  DCM       H2              1.3696767687       10.3471179988        2.1820257197  CLST      90              1.0000000000
       449        90  DCM       CL1            -0.0117566018        8.5067258018        2.8314861853  CLST      90              1.0000000000
       450        90  DCM       CL2             2.8841719922        8.5096807412        2.3980952385  CLST      90              1.0000000000
       451        91  DCM       C              -3.7869957894        4.3891187802        7.3117780638  CLST      91              1.0000000000
       452        91  DCM       H1             -3.5562706534        3.9839133841        8.3190139200  CLST      91              1.0000000000
       453        91  DCM       H2             -4.8760801712        4.5778803753        7.1980246782  CLST      91              1.0000000000
       454        91  DCM       CL1            -2.9027440864        5.9259244235        7.0876356614  CLST      91              1.0000000000
       455        91  DCM       CL2            -3.2690511535        3.2042307769        6.0780176677  CLST      91              1.0000000000
       456        92  DCM       C               9.1795691597       -3.5494298283      -10.9214007953  CLST      92              1.0000000000
       457        92  DCM       H1              8.9450048311       -3.5627234182       -9.8357151299  CLST      92              1.0000000000
       458        92  DCM       H2              9.5820965396       -2.5619355434      -11.2285310186  CLST      92              1.0000000000
       459        92  DCM       CL1            10.3963353935       -4.8107650808      -11.2742906549  CLST      92              1.0000000000
       460        92  DCM       CL2             7.6847656005       -3.8784827664      -11.8446943117  CLST      92              1.0000000000
