* initial
*
        150  EXT
         1         1  DCM   C            -4.4775663097       12.7858144783      -15.9966732462  CLST           1          1.0000000000
         2         1  DCM   H1           -3.8881208591       13.7269354118      -15.9885480780  CLST           1          1.0000000000
         3         1  DCM   H2           -5.0785050723       12.6820728180      -15.0682345858  CLST           1          1.0000000000
         4         1  DCM   CL1          -5.5790868631       12.8020069930      -17.4048585079  CLST           1          1.0000000000
         5         1  DCM   CL2          -3.3564733896       11.3988461577      -16.1222486969  CLST           1          1.0000000000
         6         2  DCM   C             0.8642869111       -7.7676054020       16.6591063069  CLST           2          1.0000000000
         7         2  DCM   H1            0.6676928842       -8.8469803519       16.8312415219  CLST           2          1.0000000000
         8         2  DCM   H2            0.1934769781       -7.1344383793       17.2775342460  CLST           2          1.0000000000
         9         2  DCM   CL1           2.5619503334       -7.4102447164       17.0917323083  CLST           2          1.0000000000
        10         2  DCM   CL2           0.5863920958       -7.3946439847       14.9326329010  CLST           2          1.0000000000
        11         3  DCM   C             8.9244677638      -14.0064617535        8.5814172741  CLST           3          1.0000000000
        12         3  DCM   H1            8.3608381669      -13.3670196078        7.8695492392  CLST           3          1.0000000000
        13         3  DCM   H2            9.9754495247      -14.1447673414        8.2502768253  CLST           3          1.0000000000
        14         3  DCM   CL1           8.9203032976      -13.2273453713       10.1907277917  CLST           3          1.0000000000
        15         3  DCM   CL2           8.1309971581      -15.6057763358        8.6791975275  CLST           3          1.0000000000
        16         4  DCM   C             8.0750124291       -5.9520730364       -1.4870963427  CLST           4          1.0000000000
        17         4  DCM   H1            8.9665517431       -6.0889146719       -0.8395928553  CLST           4          1.0000000000
        18         4  DCM   H2            7.2731828218       -5.4017727343       -0.9504347379  CLST           4          1.0000000000
        19         4  DCM   CL1           8.5472303096       -5.0214858971       -2.9389013317  CLST           4          1.0000000000
        20         4  DCM   CL2           7.4574704772       -7.5585453792       -1.9693897915  CLST           4          1.0000000000
        21         5  DCM   C            14.8878287806       -1.5115917549      -15.6056689508  CLST           5          1.0000000000
        22         5  DCM   H1           14.3311510769       -0.5632064112      -15.7588817815  CLST           5          1.0000000000
        23         5  DCM   H2           14.3837728275       -2.3591334486      -16.1166986177  CLST           5          1.0000000000
        24         5  DCM   CL1          16.5369985903       -1.3306224797      -16.2716552576  CLST           5          1.0000000000
        25         5  DCM   CL2          14.9769188771       -1.8568702859      -13.8534566837  CLST           5          1.0000000000
        26         6  DCM   C             3.6357817246       10.0715447210        6.9103687867  CLST           6          1.0000000000
        27         6  DCM   H1            4.5268506354        9.4576271117        6.6614084778  CLST           6          1.0000000000
        28         6  DCM   H2            3.9072980271       10.9208844297        7.5725506165  CLST           6          1.0000000000
        29         6  DCM   CL1           2.9351808495       10.7198097116        5.3995254003  CLST           6          1.0000000000
        30         6  DCM   CL2           2.4331507965        9.0431406755        7.7428119459  CLST           6          1.0000000000
        31         7  DCM   C           -14.8640668900        3.1762439473       -9.9546311505  CLST           7          1.0000000000
        32         7  DCM   H1          -15.4779425227        3.9974174468      -10.3815245787  CLST           7          1.0000000000
        33         7  DCM   H2          -13.9650737980        3.5745797259       -9.4384377684  CLST           7          1.0000000000
        34         7  DCM   CL1         -15.8529630738        2.2635133575       -8.7773593247  CLST           7          1.0000000000
        35         7  DCM   CL2         -14.3417976694        2.0929924280      -11.2778222899  CLST           7          1.0000000000
        36         8  DCM   C            14.0065395084       14.7485793962       12.7844568130  CLST           8          1.0000000000
        37         8  DCM   H1           13.4649028196       13.7900715303       12.6360728106  CLST           8          1.0000000000
        38         8  DCM   H2           13.6125156020       15.5386279970       12.1108958572  CLST           8          1.0000000000
        39         8  DCM   CL1          13.8026750830       15.2763509276       14.4805730542  CLST           8          1.0000000000
        40         8  DCM   CL2          15.7415622895       14.4975074351       12.4330534959  CLST           8          1.0000000000
        41         9  DCM   C            14.1203510048       -2.0604632180        0.1761287337  CLST           9          1.0000000000
        42         9  DCM   H1           15.1876330379       -1.7628125070        0.2533200373  CLST           9          1.0000000000
        43         9  DCM   H2           14.0143364899       -3.1657835651        0.1597383321  CLST           9          1.0000000000
        44         9  DCM   CL1          13.2324840810       -1.4128054982        1.5864991843  CLST           9          1.0000000000
        45         9  DCM   CL2          13.4356122798       -1.3879163357       -1.3326869404  CLST           9          1.0000000000
        46        10  DCM   C            10.1552838732       -2.8468050912       -0.3245309746  CLST          10          1.0000000000
        47        10  DCM   H1           10.6922314259       -1.9378922017        0.0194942857  CLST          10          1.0000000000
        48        10  DCM   H2            9.9038344810       -2.7755926715       -1.4038403853  CLST          10          1.0000000000
        49        10  DCM   CL1          11.1975387204       -4.2760297688       -0.0633409712  CLST          10          1.0000000000
        50        10  DCM   CL2           8.6455005853       -3.0195122362        0.6167706375  CLST          10          1.0000000000
        51        11  DCM   C            15.4267434598       -5.4703620106      -14.9068643785  CLST          11          1.0000000000
        52        11  DCM   H1           15.7682148444       -4.8240442206      -14.0706191903  CLST          11          1.0000000000
        53        11  DCM   H2           15.5931541928       -6.5439289642      -14.6763983114  CLST          11          1.0000000000
        54        11  DCM   CL1          13.6806655465       -5.1977531785      -15.1786303249  CLST          11          1.0000000000
        55        11  DCM   CL2          16.3427196226       -5.0439453436      -16.3814559467  CLST          11          1.0000000000
        56        12  DCM   C             1.7128509829       -3.6213956134        7.3677964500  CLST          12          1.0000000000
        57        12  DCM   H1            2.2222412538       -4.5945160107        7.5317992481  CLST          12          1.0000000000
        58        12  DCM   H2            2.4244363358       -2.7747017002        7.4680859492  CLST          12          1.0000000000
        59        12  DCM   CL1           1.0144202049       -3.6013835808        5.7219250202  CLST          12          1.0000000000
        60        12  DCM   CL2           0.4130267254       -3.4345001317        8.5812779373  CLST          12          1.0000000000
        61        13  DCM   C             1.4485047485        5.0625530246        1.0928559165  CLST          13          1.0000000000
        62        13  DCM   H1            1.5240624074        6.1697609562        1.1423031145  CLST          13          1.0000000000
        63        13  DCM   H2            1.0443792213        4.7324745114        0.1124464413  CLST          13          1.0000000000
        64        13  DCM   CL1           3.0765591749        4.3592774949        1.3186552329  CLST          13          1.0000000000
        65        13  DCM   CL2           0.3587137124        4.4942988615        2.3913567832  CLST          13          1.0000000000
        66        14  DCM   C             2.6806408301        7.1593626697        4.0737514858  CLST          14          1.0000000000
        67        14  DCM   H1            2.5785987048        6.0596789878        3.9608574061  CLST          14          1.0000000000
        68        14  DCM   H2            2.9682622912        7.4304790826        5.1116530401  CLST          14          1.0000000000
        69        14  DCM   CL1           3.9412592264        7.7453423852        2.9500889580  CLST          14          1.0000000000
        70        14  DCM   CL2           1.1166103453        7.9332862619        3.6856933639  CLST          14          1.0000000000
        71        15  DCM   C            15.9009498395        5.0468307284       -8.8672427635  CLST          15          1.0000000000
        72        15  DCM   H1           16.1827148903        3.9728554702       -8.8916727358  CLST          15          1.0000000000
        73        15  DCM   H2           14.8030807427        5.1704859344       -8.7545240172  CLST          15          1.0000000000
        74        15  DCM   CL1          16.7189455874        5.8308966397       -7.4840184771  CLST          15          1.0000000000
        75        15  DCM   CL2          16.4184122432        5.8181796090      -10.3950835940  CLST          15          1.0000000000
        76        16  DCM   C            13.2050674135      -13.4809468451      -13.1267750324  CLST          16          1.0000000000
        77        16  DCM   H1           12.5827195323      -13.1237888349      -13.9744151232  CLST          16          1.0000000000
        78        16  DCM   H2           13.9639408425      -14.2162113170      -13.4686949107  CLST          16          1.0000000000
        79        16  DCM   CL1          14.0413118106      -12.0825501199      -12.3902979509  CLST          16          1.0000000000
        80        16  DCM   CL2          12.1450768673      -14.2608383756      -11.9163845436  CLST          16          1.0000000000
        81        17  DCM   C            11.4412536171        9.4164303218        1.2857983511  CLST          17          1.0000000000
        82        17  DCM   H1           12.3571305200        8.9400685929        0.8762981662  CLST          17          1.0000000000
        83        17  DCM   H2           10.5357660017        9.0811221535        0.7371312005  CLST          17          1.0000000000
        84        17  DCM   CL1          11.2749154725        8.9700187680        3.0092143319  CLST          17          1.0000000000
        85        17  DCM   CL2          11.5904868391       11.1914046610        1.1304156321  CLST          17          1.0000000000
        86        18  DCM   C            10.1595333894        0.2011160568       11.4942815476  CLST          18          1.0000000000
        87        18  DCM   H1            9.2048444832       -0.2230265682       11.1186952094  CLST          18          1.0000000000
        88        18  DCM   H2           10.5819876535       -0.4240498684       12.3088720187  CLST          18          1.0000000000
        89        18  DCM   CL1          11.3310554503        0.2701454043       10.1456562153  CLST          18          1.0000000000
        90        18  DCM   CL2           9.8595610311        1.8488085233       12.1216667093  CLST          18          1.0000000000
        91        19  DCM   C             1.8737448662       11.8996674865       10.1938217992  CLST          19          1.0000000000
        92        19  DCM   H1            1.4261094769       12.4208501898       11.0663373017  CLST          19          1.0000000000
        93        19  DCM   H2            1.4046441761       10.9065688359       10.0368770513  CLST          19          1.0000000000
        94        19  DCM   CL1           1.6265084988       12.8965413572        8.7293798825  CLST          19          1.0000000000
        95        19  DCM   CL2           3.6238269025       11.6764880543       10.4868391174  CLST          19          1.0000000000
        96        20  DCM   C            -6.8591374808        9.9133716015      -15.0928302830  CLST          20          1.0000000000
        97        20  DCM   H1           -7.4794586465        8.9925004037      -15.1139482373  CLST          20          1.0000000000
        98        20  DCM   H2           -6.2794372920       10.0268956462      -16.0336444414  CLST          20          1.0000000000
        99        20  DCM   CL1          -7.9300772436       11.3310880913      -14.8937112409  CLST          20          1.0000000000
       100        20  DCM   CL2          -5.7219979060        9.8168445684      -13.7166733508  CLST          20          1.0000000000
       101        21  DCM   C           -16.1799423867        7.3662489360       10.5865733316  CLST          21          1.0000000000
       102        21  DCM   H1          -16.7364167779        8.2337560198       11.0003572869  CLST          21          1.0000000000
       103        21  DCM   H2          -16.8035498851        6.4474009711       10.5986117469  CLST          21          1.0000000000
       104        21  DCM   CL1         -15.7112829901        7.7279054597        8.8994222360  CLST          21          1.0000000000
       105        21  DCM   CL2         -14.7171867865        7.0884045848       11.5766028260  CLST          21          1.0000000000
       106        22  DCM   C            -1.1040606888      -15.6680706429      -15.5356008654  CLST          22          1.0000000000
       107        22  DCM   H1           -0.1632805934      -15.6070932809      -16.1225662351  CLST          22          1.0000000000
       108        22  DCM   H2           -1.7499296516      -16.4954386363      -15.8984035357  CLST          22          1.0000000000
       109        22  DCM   CL1          -0.6992629118      -15.9576050692      -13.8182642469  CLST          22          1.0000000000
       110        22  DCM   CL2          -1.9914299201      -14.1243254210      -15.6983797993  CLST          22          1.0000000000
       111        23  DCM   C             6.3058906159        1.7622879126       10.8962956950  CLST          23          1.0000000000
       112        23  DCM   H1            5.2598610648        2.0086223416       10.6162658698  CLST          23          1.0000000000
       113        23  DCM   H2            6.7824393173        2.6017631849       11.4452856416  CLST          23          1.0000000000
       114        23  DCM   CL1           6.3014081254        0.3123254240       11.9427937480  CLST          23          1.0000000000
       115        23  DCM   CL2           7.2430441327        1.4337543005        9.4091829485  CLST          23          1.0000000000
       116        24  DCM   C            -5.3727908909        1.2932432372       15.3169111252  CLST          24          1.0000000000
       117        24  DCM   H1           -5.8940169287        1.3574422333       16.2955801933  CLST          24          1.0000000000
       118        24  DCM   H2           -5.1916980011        0.2356343797       15.0298743080  CLST          24          1.0000000000
       119        24  DCM   CL1          -6.3868525340        2.0700106714       14.0656573205  CLST          24          1.0000000000
       120        24  DCM   CL2          -3.8031557093        2.1403261215       15.4374822645  CLST          24          1.0000000000
       121        25  DCM   C            15.2066420051       11.9675981895       15.3145236392  CLST          25          1.0000000000
       122        25  DCM   H1           15.7603543506       12.2938826596       14.4084823369  CLST          25          1.0000000000
       123        25  DCM   H2           15.1791301182       12.7754292478       16.0751939939  CLST          25          1.0000000000
       124        25  DCM   CL1          13.5322699303       11.5452019691       14.8516928049  CLST          25          1.0000000000
       125        25  DCM   CL2          16.0228488254       10.5363105399       16.0074928416  CLST          25          1.0000000000
       126        26  DCM   C            -1.4958267972       15.3660101388        9.8499880685  CLST          26          1.0000000000
       127        26  DCM   H1           -2.2949623232       14.8469567662        9.2785751662  CLST          26          1.0000000000
       128        26  DCM   H2           -0.6164053706       15.5776064201        9.2058436583  CLST          26          1.0000000000
       129        26  DCM   CL1          -2.1423163811       16.9100649367       10.4783073837  CLST          26          1.0000000000
       130        26  DCM   CL2          -0.9836862071       14.3242416732       11.2098616444  CLST          26          1.0000000000
       131        27  DCM   C            15.6953786765        9.9741792832       12.1080156155  CLST          27          1.0000000000
       132        27  DCM   H1           15.8209500811        9.0930985262       11.4431791511  CLST          27          1.0000000000
       133        27  DCM   H2           15.2767731065        9.6748144147       13.0918992085  CLST          27          1.0000000000
       134        27  DCM   CL1          17.2895848942       10.7428022758       12.3617136997  CLST          27          1.0000000000
       135        27  DCM   CL2          14.5806375575       11.1351234589       11.3296965053  CLST          27          1.0000000000
       136        28  DCM   C            -9.9062870595      -11.8846205035        1.5629971600  CLST          28          1.0000000000
       137        28  DCM   H1          -11.0162471276      -11.8482504835        1.5589788860  CLST          28          1.0000000000
       138        28  DCM   H2           -9.4812945450      -11.0825138283        2.2028025891  CLST          28          1.0000000000
       139        28  DCM   CL1          -9.3794341990      -13.4720707968        2.1949625344  CLST          28          1.0000000000
       140        28  DCM   CL2          -9.3120279084      -11.6695441786       -0.1095908951  CLST          28          1.0000000000
       141        29  DCM   C            -9.2609749050       -0.0302137676       14.6744248900  CLST          29          1.0000000000
       142        29  DCM   H1           -9.3164881163        1.0379159948       14.9738761749  CLST          29          1.0000000000
       143        29  DCM   H2           -8.8358264918       -0.1367605778       13.6538621045  CLST          29          1.0000000000
       144        29  DCM   CL1          -8.2179523239       -0.9058496567       15.8333053270  CLST          29          1.0000000000
       145        29  DCM   CL2         -10.9076984223       -0.7256947370       14.6942422775  CLST          29          1.0000000000
       146        30  DCM   C            11.0473077441        9.9830779896      -16.0576350067  CLST          30          1.0000000000
       147        30  DCM   H1           10.9347415419       10.2223605414      -14.9790324668  CLST          30          1.0000000000
       148        30  DCM   H2           11.1531355974       10.9072844507      -16.6642859744  CLST          30          1.0000000000
       149        30  DCM   CL1          12.5056654136        8.9726011087      -16.2792006852  CLST          30          1.0000000000
       150        30  DCM   CL2           9.6000384114        9.0891603032      -16.6083710817  CLST          30          1.0000000000
