* pre_mlpot:monomer_repack
*
        150  EXT
         1         1  DCM   C            12.7150000000       36.7410000000       36.5850000000  CLST           1          1.0000000000
         2         1  DCM   H1           13.5270000000       37.4990000000       36.5720000000  CLST           1          1.0000000000
         3         1  DCM   H2           12.0920000000       36.8390000000       37.5000000000  CLST           1          1.0000000000
         4         1  DCM   CL1          11.6790000000       36.9720000000       35.1470000000  CLST           1          1.0000000000
         5         1  DCM   CL2          13.4430000000       35.1090000000       36.5500000000  CLST           1          1.0000000000
         6         2  DCM   C            29.5670000000        8.7160000000       22.5220000000  CLST           2          1.0000000000
         7         2  DCM   H1           29.2280000000        9.7100000000       22.8830000000  CLST           2          1.0000000000
         8         2  DCM   H2           29.4450000000        7.9420000000       23.3090000000  CLST           2          1.0000000000
         9         2  DCM   CL1          28.5960000000        8.2530000000       21.0950000000  CLST           2          1.0000000000
        10         2  DCM   CL2          31.2950000000        8.8200000000       22.0720000000  CLST           2          1.0000000000
        11         3  DCM   C             3.3940000000       36.5990000000       35.2540000000  CLST           3          1.0000000000
        12         3  DCM   H1            3.2900000000       35.5050000000       35.0940000000  CLST           3          1.0000000000
        13         3  DCM   H2            4.4600000000       36.8870000000       35.3730000000  CLST           3          1.0000000000
        14         3  DCM   CL1           2.7140000000       37.4600000000       33.8430000000  CLST           3          1.0000000000
        15         3  DCM   CL2           2.5000000000       37.0570000000       36.7340000000  CLST           3          1.0000000000
        16         4  DCM   C            29.8190000000       29.2990000000       22.8830000000  CLST           4          1.0000000000
        17         4  DCM   H1           29.5140000000       28.2690000000       22.6020000000  CLST           4          1.0000000000
        18         4  DCM   H2           30.8760000000       29.3230000000       23.2240000000  CLST           4          1.0000000000
        19         4  DCM   CL1          29.6440000000       30.3660000000       21.4590000000  CLST           4          1.0000000000
        20         4  DCM   CL2          28.7660000000       29.8740000000       24.2070000000  CLST           4          1.0000000000
        21         5  DCM   C             7.5420000000        5.8770000000        3.0440000000  CLST           5          1.0000000000
        22         5  DCM   H1            8.3140000000        6.4290000000        2.4680000000  CLST           5          1.0000000000
        23         5  DCM   H2            6.5890000000        5.8130000000        2.4770000000  CLST           5          1.0000000000
        24         5  DCM   CL1           8.1360000000        4.2220000000        3.3710000000  CLST           5          1.0000000000
        25         5  DCM   CL2           7.2460000000        6.7300000000        4.5880000000  CLST           5          1.0000000000
        26         6  DCM   C            29.2840000000       23.4340000000        3.6360000000  CLST           6          1.0000000000
        27         6  DCM   H1           28.4350000000       23.2370000000        4.3230000000  CLST           6          1.0000000000
        28         6  DCM   H2           29.4230000000       22.5940000000        2.9220000000  CLST           6          1.0000000000
        29         6  DCM   CL1          28.9490000000       24.9260000000        2.7120000000  CLST           6          1.0000000000
        30         6  DCM   CL2          30.7770000000       23.6380000000        4.5960000000  CLST           6          1.0000000000
        31         7  DCM   C             3.7680000000       28.1150000000        3.7850000000  CLST           7          1.0000000000
        32         7  DCM   H1            4.2190000000       27.2380000000        4.2960000000  CLST           7          1.0000000000
        33         7  DCM   H2            4.5480000000       28.7430000000        3.3040000000  CLST           7          1.0000000000
        34         7  DCM   CL1           2.6350000000       27.5350000000        2.5290000000  CLST           7          1.0000000000
        35         7  DCM   CL2           2.8890000000       29.1010000000        4.9900000000  CLST           7          1.0000000000
        36         8  DCM   C            14.8540000000       29.0240000000       34.4300000000  CLST           8          1.0000000000
        37         8  DCM   H1           14.0940000000       29.4610000000       35.1120000000  CLST           8          1.0000000000
        38         8  DCM   H2           15.8100000000       28.8400000000       34.9630000000  CLST           8          1.0000000000
        39         8  DCM   CL1          14.2380000000       27.4700000000       33.7910000000  CLST           8          1.0000000000
        40         8  DCM   CL2          15.1480000000       30.1590000000       33.0810000000  CLST           8          1.0000000000
        41         9  DCM   C            36.4340000000        3.3300000000       16.3800000000  CLST           9          1.0000000000
        42         9  DCM   H1           35.3560000000        3.3830000000       16.1170000000  CLST           9          1.0000000000
        43         9  DCM   H2           36.6210000000        2.5430000000       17.1400000000  CLST           9          1.0000000000
        44         9  DCM   CL1          37.3740000000        2.9510000000       14.9070000000  CLST           9          1.0000000000
        45         9  DCM   CL2          36.9510000000        4.9100000000       17.0400000000  CLST           9          1.0000000000
        46        10  DCM   C            21.8330000000       13.4580000000        3.4910000000  CLST          10          1.0000000000
        47        10  DCM   H1           20.8740000000       13.5530000000        4.0440000000  CLST          10          1.0000000000
        48        10  DCM   H2           21.6810000000       12.9430000000        2.5190000000  CLST          10          1.0000000000
        49        10  DCM   CL1          22.4950000000       15.0910000000        3.1870000000  CLST          10          1.0000000000
        50        10  DCM   CL2          22.9820000000       12.5140000000        4.4810000000  CLST          10          1.0000000000
        51        11  DCM   C            36.9220000000       21.1100000000       35.8140000000  CLST          11          1.0000000000
        52        11  DCM   H1           37.1910000000       21.7120000000       36.7080000000  CLST          11          1.0000000000
        53        11  DCM   H2           37.3990000000       20.1070000000       35.8500000000  CLST          11          1.0000000000
        54        11  DCM   CL1          35.1470000000       20.9090000000       35.7570000000  CLST          11          1.0000000000
        55        11  DCM   CL2          37.4830000000       21.9660000000       34.3480000000  CLST          11          1.0000000000
        56        12  DCM   C            11.4230000000       19.3700000000       12.8990000000  CLST          12          1.0000000000
        57        12  DCM   H1           11.3530000000       18.2700000000       13.0360000000  CLST          12          1.0000000000
        58        12  DCM   H2           12.4250000000       19.6640000000       12.5220000000  CLST          12          1.0000000000
        59        12  DCM   CL1          10.1830000000       19.8890000000       11.7200000000  CLST          12          1.0000000000
        60        12  DCM   CL2          11.1370000000       20.1700000000       14.4720000000  CLST          12          1.0000000000
        61        13  DCM   C            36.5070000000       35.6020000000        4.0280000000  CLST          13          1.0000000000
        62        13  DCM   H1           37.4830000000       35.8320000000        4.5070000000  CLST          13          1.0000000000
        63        13  DCM   H2           36.5360000000       34.6180000000        3.5140000000  CLST          13          1.0000000000
        64        13  DCM   CL1          35.2380000000       35.5650000000        5.2870000000  CLST          13          1.0000000000
        65        13  DCM   CL2          36.1330000000       36.8740000000        2.8280000000  CLST          13          1.0000000000
        66        14  DCM   C            32.3310000000        9.1910000000        5.2210000000  CLST          14          1.0000000000
        67        14  DCM   H1           33.1760000000        9.5540000000        4.5980000000  CLST          14          1.0000000000
        68        14  DCM   H2           32.0700000000        9.9280000000        6.0100000000  CLST          14          1.0000000000
        69        14  DCM   CL1          30.9060000000        8.9300000000        4.1750000000  CLST          14          1.0000000000
        70        14  DCM   CL2          32.8000000000        7.6520000000        6.0000000000  CLST          14          1.0000000000
        71        15  DCM   C            32.1630000000       36.8780000000       33.4980000000  CLST          15          1.0000000000
        72        15  DCM   H1           31.2070000000       37.4440000000       33.5060000000  CLST          15          1.0000000000
        73        15  DCM   H2           31.9820000000       35.7860000000       33.4040000000  CLST          15          1.0000000000
        74        15  DCM   CL1          33.1480000000       37.4250000000       32.1100000000  CLST          15          1.0000000000
        75        15  DCM   CL2          33.0380000000       37.1940000000       35.0250000000  CLST          15          1.0000000000
        76        16  DCM   C             7.8150000000       36.7820000000        3.3970000000  CLST          16          1.0000000000
        77        16  DCM   H1            7.7650000000       35.7080000000        3.1160000000  CLST          16          1.0000000000
        78        16  DCM   H2            8.0020000000       37.4200000000        2.5070000000  CLST          16          1.0000000000
        79        16  DCM   CL1           6.2610000000       37.2620000000        4.1380000000  CLST          16          1.0000000000
        80        16  DCM   CL2           9.1460000000       37.0140000000        4.5680000000  CLST          16          1.0000000000
        81        17  DCM   C            28.3930000000       14.5040000000       36.9780000000  CLST          17          1.0000000000
        82        17  DCM   H1           28.1380000000       15.5540000000       37.2350000000  CLST          17          1.0000000000
        83        17  DCM   H2           27.7200000000       13.7900000000       37.5000000000  CLST          17          1.0000000000
        84        17  DCM   CL1          28.2200000000       14.2810000000       35.2130000000  CLST          17          1.0000000000
        85        17  DCM   CL2          30.0810000000       14.1780000000       37.4690000000  CLST          17          1.0000000000
        86        18  DCM   C            22.9870000000       36.5990000000        3.8360000000  CLST          18          1.0000000000
        87        18  DCM   H1           23.9130000000       37.1330000000        4.1350000000  CLST          18          1.0000000000
        88        18  DCM   H2           22.2760000000       36.5250000000        4.6870000000  CLST          18          1.0000000000
        89        18  DCM   CL1          22.2060000000       37.4960000000        2.5020000000  CLST          18          1.0000000000
        90        18  DCM   CL2          23.4130000000       34.9500000000        3.2910000000  CLST          18          1.0000000000
        91        19  DCM   C            26.4590000000       36.2100000000       36.6260000000  CLST          19          1.0000000000
        92        19  DCM   H1           26.2020000000       36.5620000000       35.6040000000  CLST          19          1.0000000000
        93        19  DCM   H2           25.5460000000       35.9740000000       37.2100000000  CLST          19          1.0000000000
        94        19  DCM   CL1          27.4650000000       34.7360000000       36.4990000000  CLST          19          1.0000000000
        95        19  DCM   CL2          27.3720000000       37.4960000000       37.4700000000  CLST          19          1.0000000000
        96        20  DCM   C            28.5490000000       16.3620000000        3.3500000000  CLST          20          1.0000000000
        97        20  DCM   H1           27.9100000000       16.8880000000        2.6100000000  CLST          20          1.0000000000
        98        20  DCM   H2           28.5120000000       16.8630000000        4.3400000000  CLST          20          1.0000000000
        99        20  DCM   CL1          27.9690000000       14.6800000000        3.5270000000  CLST          20          1.0000000000
       100        20  DCM   CL2          30.2370000000       16.3600000000        2.7620000000  CLST          20          1.0000000000
       101        21  DCM   C             6.3590000000        7.8040000000       11.1130000000  CLST          21          1.0000000000
       102        21  DCM   H1            5.3430000000        8.1780000000       10.8650000000  CLST          21          1.0000000000
       103        21  DCM   H2            6.4150000000        6.7000000000       11.0120000000  CLST          21          1.0000000000
       104        21  DCM   CL1           7.5400000000        8.5490000000        9.9970000000  CLST          21          1.0000000000
       105        21  DCM   CL2           6.7480000000        8.2540000000       12.7980000000  CLST          21          1.0000000000
       106        22  DCM   C             9.3500000000       36.7280000000       28.7860000000  CLST          22          1.0000000000
       107        22  DCM   H1            9.3180000000       36.8990000000       29.8820000000  CLST          22          1.0000000000
       108        22  DCM   H2            9.3450000000       35.6430000000       28.5490000000  CLST          22          1.0000000000
       109        22  DCM   CL1           7.9200000000       37.4930000000       28.0350000000  CLST          22          1.0000000000
       110        22  DCM   CL2          10.8450000000       37.4570000000       28.1270000000  CLST          22          1.0000000000
       111        23  DCM   C            36.2870000000        3.5090000000       36.6230000000  CLST          23          1.0000000000
       112        23  DCM   H1           37.1190000000        3.4030000000       37.3500000000  CLST          23          1.0000000000
       113        23  DCM   H2           35.8760000000        2.5190000000       36.3350000000  CLST          23          1.0000000000
       114        23  DCM   CL1          34.9840000000        4.4830000000       37.3670000000  CLST          23          1.0000000000
       115        23  DCM   CL2          36.8970000000        4.3330000000       35.1570000000  CLST          23          1.0000000000
       116        24  DCM   C            36.5040000000       32.6210000000       30.6820000000  CLST          24          1.0000000000
       117        24  DCM   H1           35.4460000000       32.7110000000       30.3600000000  CLST          24          1.0000000000
       118        24  DCM   H2           36.8950000000       33.5970000000       31.0410000000  CLST          24          1.0000000000
       119        24  DCM   CL1          36.6090000000       31.4290000000       32.0100000000  CLST          24          1.0000000000
       120        24  DCM   CL2          37.4900000000       32.0730000000       29.2950000000  CLST          24          1.0000000000
       121        25  DCM   C            36.4770000000       25.8250000000       29.6600000000  CLST          25          1.0000000000
       122        25  DCM   H1           35.4430000000       25.9820000000       30.0350000000  CLST          25          1.0000000000
       123        25  DCM   H2           37.2260000000       26.1550000000       30.4110000000  CLST          25          1.0000000000
       124        25  DCM   CL1          36.7160000000       24.0860000000       29.3230000000  CLST          25          1.0000000000
       125        25  DCM   CL2          36.6970000000       26.7700000000       28.1590000000  CLST          25          1.0000000000
       126        26  DCM   C            22.1060000000        3.7170000000        3.3050000000  CLST          26          1.0000000000
       127        26  DCM   H1           22.1510000000        4.7740000000        2.9680000000  CLST          26          1.0000000000
       128        26  DCM   H2           22.1040000000        3.6500000000        4.4130000000  CLST          26          1.0000000000
       129        26  DCM   CL1          20.6080000000        2.9710000000        2.6740000000  CLST          26          1.0000000000
       130        26  DCM   CL2          23.5320000000        2.8450000000        2.6710000000  CLST          26          1.0000000000
       131        27  DCM   C            25.4880000000       23.4370000000       28.8660000000  CLST          27          1.0000000000
       132        27  DCM   H1           26.4300000000       23.0210000000       29.2820000000  CLST          27          1.0000000000
       133        27  DCM   H2           25.6710000000       24.4030000000       28.3510000000  CLST          27          1.0000000000
       134        27  DCM   CL1          24.8030000000       22.2720000000       27.6950000000  CLST          27          1.0000000000
       135        27  DCM   CL2          24.3310000000       23.7020000000       30.2030000000  CLST          27          1.0000000000
       136        28  DCM   C             3.2150000000        3.1480000000        6.8940000000  CLST          28          1.0000000000
       137        28  DCM   H1            2.4660000000        2.4900000000        7.3830000000  CLST          28          1.0000000000
       138        28  DCM   H2            3.2110000000        3.0110000000        5.7920000000  CLST          28          1.0000000000
       139        28  DCM   CL1           2.8230000000        4.8530000000        7.2680000000  CLST          28          1.0000000000
       140        28  DCM   CL2           4.8400000000        2.7470000000        7.5240000000  CLST          28          1.0000000000
       141        29  DCM   C            25.7460000000        3.9000000000       36.3670000000  CLST          29          1.0000000000
       142        29  DCM   H1           26.1000000000        4.5570000000       37.1900000000  CLST          29          1.0000000000
       143        29  DCM   H2           25.2670000000        2.9820000000       36.7660000000  CLST          29          1.0000000000
       144        29  DCM   CL1          24.5540000000        4.7960000000       35.3800000000  CLST          29          1.0000000000
       145        29  DCM   CL2          27.1440000000        3.4330000000       35.3540000000  CLST          29          1.0000000000
       146        30  DCM   C            36.8800000000        3.1960000000        3.1470000000  CLST          30          1.0000000000
       147        30  DCM   H1           37.1780000000        3.1000000000        4.2120000000  CLST          30          1.0000000000
       148        30  DCM   H2           37.4650000000        2.5060000000        2.5020000000  CLST          30          1.0000000000
       149        30  DCM   CL1          35.1430000000        2.8000000000        2.9940000000  CLST          30          1.0000000000
       150        30  DCM   CL2          37.1680000000        4.8770000000        2.6110000000  CLST          30          1.0000000000
