PSF EXT CMAP XPLOR

         1 !NTITLE
*  DATE:     7/15/26     20:17:33      CREATED BY USER: boittier                

       150 !NATOM
         1 CLST     1        DCM      C        CG321   -0.180000E-01   12.0110           0
         2 CLST     1        DCM      H1       HGA2     0.900000E-01   1.00800           0
         3 CLST     1        DCM      H2       HGA2     0.900000E-01   1.00800           0
         4 CLST     1        DCM      CL1      CLGA1   -0.810000E-01   35.4530           0
         5 CLST     1        DCM      CL2      CLGA1   -0.810000E-01   35.4530           0
         6 CLST     2        DCM      C        CG321   -0.180000E-01   12.0110           0
         7 CLST     2        DCM      H1       HGA2     0.900000E-01   1.00800           0
         8 CLST     2        DCM      H2       HGA2     0.900000E-01   1.00800           0
         9 CLST     2        DCM      CL1      CLGA1   -0.810000E-01   35.4530           0
        10 CLST     2        DCM      CL2      CLGA1   -0.810000E-01   35.4530           0
        11 CLST     3        DCM      C        CG321   -0.180000E-01   12.0110           0
        12 CLST     3        DCM      H1       HGA2     0.900000E-01   1.00800           0
        13 CLST     3        DCM      H2       HGA2     0.900000E-01   1.00800           0
        14 CLST     3        DCM      CL1      CLGA1   -0.810000E-01   35.4530           0
        15 CLST     3        DCM      CL2      CLGA1   -0.810000E-01   35.4530           0
        16 CLST     4        DCM      C        CG321   -0.180000E-01   12.0110           0
        17 CLST     4        DCM      H1       HGA2     0.900000E-01   1.00800           0
        18 CLST     4        DCM      H2       HGA2     0.900000E-01   1.00800           0
        19 CLST     4        DCM      CL1      CLGA1   -0.810000E-01   35.4530           0
        20 CLST     4        DCM      CL2      CLGA1   -0.810000E-01   35.4530           0
        21 CLST     5        DCM      C        CG321   -0.180000E-01   12.0110           0
        22 CLST     5        DCM      H1       HGA2     0.900000E-01   1.00800           0
        23 CLST     5        DCM      H2       HGA2     0.900000E-01   1.00800           0
        24 CLST     5        DCM      CL1      CLGA1   -0.810000E-01   35.4530           0
        25 CLST     5        DCM      CL2      CLGA1   -0.810000E-01   35.4530           0
        26 CLST     6        DCM      C        CG321   -0.180000E-01   12.0110           0
        27 CLST     6        DCM      H1       HGA2     0.900000E-01   1.00800           0
        28 CLST     6        DCM      H2       HGA2     0.900000E-01   1.00800           0
        29 CLST     6        DCM      CL1      CLGA1   -0.810000E-01   35.4530           0
        30 CLST     6        DCM      CL2      CLGA1   -0.810000E-01   35.4530           0
        31 CLST     7        DCM      C        CG321   -0.180000E-01   12.0110           0
        32 CLST     7        DCM      H1       HGA2     0.900000E-01   1.00800           0
        33 CLST     7        DCM      H2       HGA2     0.900000E-01   1.00800           0
        34 CLST     7        DCM      CL1      CLGA1   -0.810000E-01   35.4530           0
        35 CLST     7        DCM      CL2      CLGA1   -0.810000E-01   35.4530           0
        36 CLST     8        DCM      C        CG321   -0.180000E-01   12.0110           0
        37 CLST     8        DCM      H1       HGA2     0.900000E-01   1.00800           0
        38 CLST     8        DCM      H2       HGA2     0.900000E-01   1.00800           0
        39 CLST     8        DCM      CL1      CLGA1   -0.810000E-01   35.4530           0
        40 CLST     8        DCM      CL2      CLGA1   -0.810000E-01   35.4530           0
        41 CLST     9        DCM      C        CG321   -0.180000E-01   12.0110           0
        42 CLST     9        DCM      H1       HGA2     0.900000E-01   1.00800           0
        43 CLST     9        DCM      H2       HGA2     0.900000E-01   1.00800           0
        44 CLST     9        DCM      CL1      CLGA1   -0.810000E-01   35.4530           0
        45 CLST     9        DCM      CL2      CLGA1   -0.810000E-01   35.4530           0
        46 CLST     10       DCM      C        CG321   -0.180000E-01   12.0110           0
        47 CLST     10       DCM      H1       HGA2     0.900000E-01   1.00800           0
        48 CLST     10       DCM      H2       HGA2     0.900000E-01   1.00800           0
        49 CLST     10       DCM      CL1      CLGA1   -0.810000E-01   35.4530           0
        50 CLST     10       DCM      CL2      CLGA1   -0.810000E-01   35.4530           0
        51 CLST     11       DCM      C        CG321   -0.180000E-01   12.0110           0
        52 CLST     11       DCM      H1       HGA2     0.900000E-01   1.00800           0
        53 CLST     11       DCM      H2       HGA2     0.900000E-01   1.00800           0
        54 CLST     11       DCM      CL1      CLGA1   -0.810000E-01   35.4530           0
        55 CLST     11       DCM      CL2      CLGA1   -0.810000E-01   35.4530           0
        56 CLST     12       DCM      C        CG321   -0.180000E-01   12.0110           0
        57 CLST     12       DCM      H1       HGA2     0.900000E-01   1.00800           0
        58 CLST     12       DCM      H2       HGA2     0.900000E-01   1.00800           0
        59 CLST     12       DCM      CL1      CLGA1   -0.810000E-01   35.4530           0
        60 CLST     12       DCM      CL2      CLGA1   -0.810000E-01   35.4530           0
        61 CLST     13       DCM      C        CG321   -0.180000E-01   12.0110           0
        62 CLST     13       DCM      H1       HGA2     0.900000E-01   1.00800           0
        63 CLST     13       DCM      H2       HGA2     0.900000E-01   1.00800           0
        64 CLST     13       DCM      CL1      CLGA1   -0.810000E-01   35.4530           0
        65 CLST     13       DCM      CL2      CLGA1   -0.810000E-01   35.4530           0
        66 CLST     14       DCM      C        CG321   -0.180000E-01   12.0110           0
        67 CLST     14       DCM      H1       HGA2     0.900000E-01   1.00800           0
        68 CLST     14       DCM      H2       HGA2     0.900000E-01   1.00800           0
        69 CLST     14       DCM      CL1      CLGA1   -0.810000E-01   35.4530           0
        70 CLST     14       DCM      CL2      CLGA1   -0.810000E-01   35.4530           0
        71 CLST     15       DCM      C        CG321   -0.180000E-01   12.0110           0
        72 CLST     15       DCM      H1       HGA2     0.900000E-01   1.00800           0
        73 CLST     15       DCM      H2       HGA2     0.900000E-01   1.00800           0
        74 CLST     15       DCM      CL1      CLGA1   -0.810000E-01   35.4530           0
        75 CLST     15       DCM      CL2      CLGA1   -0.810000E-01   35.4530           0
        76 CLST     16       DCM      C        CG321   -0.180000E-01   12.0110           0
        77 CLST     16       DCM      H1       HGA2     0.900000E-01   1.00800           0
        78 CLST     16       DCM      H2       HGA2     0.900000E-01   1.00800           0
        79 CLST     16       DCM      CL1      CLGA1   -0.810000E-01   35.4530           0
        80 CLST     16       DCM      CL2      CLGA1   -0.810000E-01   35.4530           0
        81 CLST     17       DCM      C        CG321   -0.180000E-01   12.0110           0
        82 CLST     17       DCM      H1       HGA2     0.900000E-01   1.00800           0
        83 CLST     17       DCM      H2       HGA2     0.900000E-01   1.00800           0
        84 CLST     17       DCM      CL1      CLGA1   -0.810000E-01   35.4530           0
        85 CLST     17       DCM      CL2      CLGA1   -0.810000E-01   35.4530           0
        86 CLST     18       DCM      C        CG321   -0.180000E-01   12.0110           0
        87 CLST     18       DCM      H1       HGA2     0.900000E-01   1.00800           0
        88 CLST     18       DCM      H2       HGA2     0.900000E-01   1.00800           0
        89 CLST     18       DCM      CL1      CLGA1   -0.810000E-01   35.4530           0
        90 CLST     18       DCM      CL2      CLGA1   -0.810000E-01   35.4530           0
        91 CLST     19       DCM      C        CG321   -0.180000E-01   12.0110           0
        92 CLST     19       DCM      H1       HGA2     0.900000E-01   1.00800           0
        93 CLST     19       DCM      H2       HGA2     0.900000E-01   1.00800           0
        94 CLST     19       DCM      CL1      CLGA1   -0.810000E-01   35.4530           0
        95 CLST     19       DCM      CL2      CLGA1   -0.810000E-01   35.4530           0
        96 CLST     20       DCM      C        CG321   -0.180000E-01   12.0110           0
        97 CLST     20       DCM      H1       HGA2     0.900000E-01   1.00800           0
        98 CLST     20       DCM      H2       HGA2     0.900000E-01   1.00800           0
        99 CLST     20       DCM      CL1      CLGA1   -0.810000E-01   35.4530           0
       100 CLST     20       DCM      CL2      CLGA1   -0.810000E-01   35.4530           0
       101 CLST     21       DCM      C        CG321   -0.180000E-01   12.0110           0
       102 CLST     21       DCM      H1       HGA2     0.900000E-01   1.00800           0
       103 CLST     21       DCM      H2       HGA2     0.900000E-01   1.00800           0
       104 CLST     21       DCM      CL1      CLGA1   -0.810000E-01   35.4530           0
       105 CLST     21       DCM      CL2      CLGA1   -0.810000E-01   35.4530           0
       106 CLST     22       DCM      C        CG321   -0.180000E-01   12.0110           0
       107 CLST     22       DCM      H1       HGA2     0.900000E-01   1.00800           0
       108 CLST     22       DCM      H2       HGA2     0.900000E-01   1.00800           0
       109 CLST     22       DCM      CL1      CLGA1   -0.810000E-01   35.4530           0
       110 CLST     22       DCM      CL2      CLGA1   -0.810000E-01   35.4530           0
       111 CLST     23       DCM      C        CG321   -0.180000E-01   12.0110           0
       112 CLST     23       DCM      H1       HGA2     0.900000E-01   1.00800           0
       113 CLST     23       DCM      H2       HGA2     0.900000E-01   1.00800           0
       114 CLST     23       DCM      CL1      CLGA1   -0.810000E-01   35.4530           0
       115 CLST     23       DCM      CL2      CLGA1   -0.810000E-01   35.4530           0
       116 CLST     24       DCM      C        CG321   -0.180000E-01   12.0110           0
       117 CLST     24       DCM      H1       HGA2     0.900000E-01   1.00800           0
       118 CLST     24       DCM      H2       HGA2     0.900000E-01   1.00800           0
       119 CLST     24       DCM      CL1      CLGA1   -0.810000E-01   35.4530           0
       120 CLST     24       DCM      CL2      CLGA1   -0.810000E-01   35.4530           0
       121 CLST     25       DCM      C        CG321   -0.180000E-01   12.0110           0
       122 CLST     25       DCM      H1       HGA2     0.900000E-01   1.00800           0
       123 CLST     25       DCM      H2       HGA2     0.900000E-01   1.00800           0
       124 CLST     25       DCM      CL1      CLGA1   -0.810000E-01   35.4530           0
       125 CLST     25       DCM      CL2      CLGA1   -0.810000E-01   35.4530           0
       126 CLST     26       DCM      C        CG321   -0.180000E-01   12.0110           0
       127 CLST     26       DCM      H1       HGA2     0.900000E-01   1.00800           0
       128 CLST     26       DCM      H2       HGA2     0.900000E-01   1.00800           0
       129 CLST     26       DCM      CL1      CLGA1   -0.810000E-01   35.4530           0
       130 CLST     26       DCM      CL2      CLGA1   -0.810000E-01   35.4530           0
       131 CLST     27       DCM      C        CG321   -0.180000E-01   12.0110           0
       132 CLST     27       DCM      H1       HGA2     0.900000E-01   1.00800           0
       133 CLST     27       DCM      H2       HGA2     0.900000E-01   1.00800           0
       134 CLST     27       DCM      CL1      CLGA1   -0.810000E-01   35.4530           0
       135 CLST     27       DCM      CL2      CLGA1   -0.810000E-01   35.4530           0
       136 CLST     28       DCM      C        CG321   -0.180000E-01   12.0110           0
       137 CLST     28       DCM      H1       HGA2     0.900000E-01   1.00800           0
       138 CLST     28       DCM      H2       HGA2     0.900000E-01   1.00800           0
       139 CLST     28       DCM      CL1      CLGA1   -0.810000E-01   35.4530           0
       140 CLST     28       DCM      CL2      CLGA1   -0.810000E-01   35.4530           0
       141 CLST     29       DCM      C        CG321   -0.180000E-01   12.0110           0
       142 CLST     29       DCM      H1       HGA2     0.900000E-01   1.00800           0
       143 CLST     29       DCM      H2       HGA2     0.900000E-01   1.00800           0
       144 CLST     29       DCM      CL1      CLGA1   -0.810000E-01   35.4530           0
       145 CLST     29       DCM      CL2      CLGA1   -0.810000E-01   35.4530           0
       146 CLST     30       DCM      C        CG321   -0.180000E-01   12.0110           0
       147 CLST     30       DCM      H1       HGA2     0.900000E-01   1.00800           0
       148 CLST     30       DCM      H2       HGA2     0.900000E-01   1.00800           0
       149 CLST     30       DCM      CL1      CLGA1   -0.810000E-01   35.4530           0
       150 CLST     30       DCM      CL2      CLGA1   -0.810000E-01   35.4530           0

       120 !NBOND: bonds
         2         1         1         4         1         5         1         3
         7         6         6         9         6        10         6         8
        12        11        11        14        11        15        11        13
        17        16        16        19        16        20        16        18
        22        21        21        24        21        25        21        23
        27        26        26        29        26        30        26        28
        32        31        31        34        31        35        31        33
        37        36        36        39        36        40        36        38
        42        41        41        44        41        45        41        43
        47        46        46        49        46        50        46        48
        52        51        51        54        51        55        51        53
        57        56        56        59        56        60        56        58
        62        61        61        64        61        65        61        63
        67        66        66        69        66        70        66        68
        72        71        71        74        71        75        71        73
        77        76        76        79        76        80        76        78
        82        81        81        84        81        85        81        83
        87        86        86        89        86        90        86        88
        92        91        91        94        91        95        91        93
        97        96        96        99        96       100        96        98
       102       101       101       104       101       105       101       103
       107       106       106       109       106       110       106       108
       112       111       111       114       111       115       111       113
       117       116       116       119       116       120       116       118
       122       121       121       124       121       125       121       123
       127       126       126       129       126       130       126       128
       132       131       131       134       131       135       131       133
       137       136       136       139       136       140       136       138
       142       141       141       144       141       145       141       143
       147       146       146       149       146       150       146       148

       180 !NTHETA: angles
         2         1         3         2         1         4         2         1         5
         3         1         4         3         1         5         4         1         5
         7         6         8         7         6         9         7         6        10
         8         6         9         8         6        10         9         6        10
        12        11        13        12        11        14        12        11        15
        13        11        14        13        11        15        14        11        15
        17        16        18        17        16        19        17        16        20
        18        16        19        18        16        20        19        16        20
        22        21        23        22        21        24        22        21        25
        23        21        24        23        21        25        24        21        25
        27        26        28        27        26        29        27        26        30
        28        26        29        28        26        30        29        26        30
        32        31        33        32        31        34        32        31        35
        33        31        34        33        31        35        34        31        35
        37        36        38        37        36        39        37        36        40
        38        36        39        38        36        40        39        36        40
        42        41        43        42        41        44        42        41        45
        43        41        44        43        41        45        44        41        45
        47        46        48        47        46        49        47        46        50
        48        46        49        48        46        50        49        46        50
        52        51        53        52        51        54        52        51        55
        53        51        54        53        51        55        54        51        55
        57        56        58        57        56        59        57        56        60
        58        56        59        58        56        60        59        56        60
        62        61        63        62        61        64        62        61        65
        63        61        64        63        61        65        64        61        65
        67        66        68        67        66        69        67        66        70
        68        66        69        68        66        70        69        66        70
        72        71        73        72        71        74        72        71        75
        73        71        74        73        71        75        74        71        75
        77        76        78        77        76        79        77        76        80
        78        76        79        78        76        80        79        76        80
        82        81        83        82        81        84        82        81        85
        83        81        84        83        81        85        84        81        85
        87        86        88        87        86        89        87        86        90
        88        86        89        88        86        90        89        86        90
        92        91        93        92        91        94        92        91        95
        93        91        94        93        91        95        94        91        95
        97        96        98        97        96        99        97        96       100
        98        96        99        98        96       100        99        96       100
       102       101       103       102       101       104       102       101       105
       103       101       104       103       101       105       104       101       105
       107       106       108       107       106       109       107       106       110
       108       106       109       108       106       110       109       106       110
       112       111       113       112       111       114       112       111       115
       113       111       114       113       111       115       114       111       115
       117       116       118       117       116       119       117       116       120
       118       116       119       118       116       120       119       116       120
       122       121       123       122       121       124       122       121       125
       123       121       124       123       121       125       124       121       125
       127       126       128       127       126       129       127       126       130
       128       126       129       128       126       130       129       126       130
       132       131       133       132       131       134       132       131       135
       133       131       134       133       131       135       134       131       135
       137       136       138       137       136       139       137       136       140
       138       136       139       138       136       140       139       136       140
       142       141       143       142       141       144       142       141       145
       143       141       144       143       141       145       144       141       145
       147       146       148       147       146       149       147       146       150
       148       146       149       148       146       150       149       146       150

         0 !NPHI: dihedrals


         0 !NIMPHI: impropers


         0 !NDON: donors


         0 !NACC: acceptors


         0 !NNB

         0         0         0         0         0         0         0         0
         0         0         0         0         0         0         0         0
         0         0         0         0         0         0         0         0
         0         0         0         0         0         0         0         0
         0         0         0         0         0         0         0         0
         0         0         0         0         0         0         0         0
         0         0         0         0         0         0         0         0
         0         0         0         0         0         0         0         0
         0         0         0         0         0         0         0         0
         0         0         0         0         0         0         0         0
         0         0         0         0         0         0         0         0
         0         0         0         0         0         0         0         0
         0         0         0         0         0         0         0         0
         0         0         0         0         0         0         0         0
         0         0         0         0         0         0         0         0
         0         0         0         0         0         0         0         0
         0         0         0         0         0         0         0         0
         0         0         0         0         0         0         0         0
         0         0         0         0         0         0

        30         0 !NGRP NST2
         0         1         0         5         1         0        10         1         0
        15         1         0        20         1         0        25         1         0
        30         1         0        35         1         0        40         1         0
        45         1         0        50         1         0        55         1         0
        60         1         0        65         1         0        70         1         0
        75         1         0        80         1         0        85         1         0
        90         1         0        95         1         0       100         1         0
       105         1         0       110         1         0       115         1         0
       120         1         0       125         1         0       130         1         0
       135         1         0       140         1         0       145         1         0

         0         0 !NUMLP NUMLPH

         0 !NCRTERM: cross-terms

