* round1:monomer_repack
*
        150  EXT
         1         1  DCM   C            13.2500000000       -3.9420000000       -4.8330000000  CLST           1          1.0000000000
         2         1  DCM   H1           12.6760000000       -4.8540000000       -5.1090000000  CLST           1          1.0000000000
         3         1  DCM   H2           13.3850000000       -3.8720000000       -3.7340000000  CLST           1          1.0000000000
         4         1  DCM   CL1          14.8560000000       -4.0090000000       -5.6140000000  CLST           1          1.0000000000
         5         1  DCM   CL2          12.3570000000       -2.5010000000       -5.4030000000  CLST           1          1.0000000000
         6         2  DCM   C            -9.2310000000        7.2030000000      -13.8510000000  CLST           2          1.0000000000
         7         2  DCM   H1           -8.7960000000        8.0950000000      -13.3620000000  CLST           2          1.0000000000
         8         2  DCM   H2          -10.2460000000        7.4160000000      -14.2530000000  CLST           2          1.0000000000
         9         2  DCM   CL1          -8.1760000000        6.7050000000      -15.2060000000  CLST           2          1.0000000000
        10         2  DCM   CL2          -9.3490000000        5.8760000000      -12.6560000000  CLST           2          1.0000000000
        11         3  DCM   C             3.5270000000       -3.9110000000       -3.7650000000  CLST           3          1.0000000000
        12         3  DCM   H1            4.2690000000       -4.6610000000       -4.1110000000  CLST           3          1.0000000000
        13         3  DCM   H2            2.8810000000       -3.5710000000       -4.6010000000  CLST           3          1.0000000000
        14         3  DCM   CL1           2.5010000000       -4.6490000000       -2.5010000000  CLST           3          1.0000000000
        15         3  DCM   CL2           4.3980000000       -2.5010000000       -3.0940000000  CLST           3          1.0000000000
        16         4  DCM   C           -15.2740000000      -10.1010000000        8.9940000000  CLST           4          1.0000000000
        17         4  DCM   H1          -15.5050000000      -10.9850000000        8.3620000000  CLST           4          1.0000000000
        18         4  DCM   H2          -15.4450000000      -10.3200000000       10.0680000000  CLST           4          1.0000000000
        19         4  DCM   CL1         -13.5590000000       -9.6510000000        8.7580000000  CLST           4          1.0000000000
        20         4  DCM   CL2         -16.3310000000       -8.7450000000        8.5010000000  CLST           4          1.0000000000
        21         5  DCM   C             5.5210000000        8.8710000000        3.0400000000  CLST           5          1.0000000000
        22         5  DCM   H1            6.1480000000        9.7650000000        2.8340000000  CLST           5          1.0000000000
        23         5  DCM   H2            4.5520000000        8.9290000000        2.5000000000  CLST           5          1.0000000000
        24         5  DCM   CL1           6.3980000000        7.4110000000        2.5000000000  CLST           5          1.0000000000
        25         5  DCM   CL2           5.2040000000        8.7740000000        4.7960000000  CLST           5          1.0000000000
        26         6  DCM   C             8.4070000000        9.4830000000       -5.9340000000  CLST           6          1.0000000000
        27         6  DCM   H1            7.6500000000        9.0980000000       -6.6490000000  CLST           6          1.0000000000
        28         6  DCM   H2            7.9330000000        9.7950000000       -4.9800000000  CLST           6          1.0000000000
        29         6  DCM   CL1           9.5950000000        8.1890000000       -5.5930000000  CLST           6          1.0000000000
        30         6  DCM   CL2           9.2330000000       10.8910000000       -6.6600000000  CLST           6          1.0000000000
        31         7  DCM   C             3.1150000000       -7.9290000000        3.4150000000  CLST           7          1.0000000000
        32         7  DCM   H1            2.5320000000       -8.1620000000        4.3300000000  CLST           7          1.0000000000
        33         7  DCM   H2            2.5000000000       -8.0740000000        2.5010000000  CLST           7          1.0000000000
        34         7  DCM   CL1           3.6550000000       -6.2270000000        3.4880000000  CLST           7          1.0000000000
        35         7  DCM   CL2           4.5340000000       -9.0140000000        3.3390000000  CLST           7          1.0000000000
        36         8  DCM   C            14.4750000000      -10.6270000000       -5.5940000000  CLST           8          1.0000000000
        37         8  DCM   H1           13.5100000000      -10.2740000000       -6.0160000000  CLST           8          1.0000000000
        38         8  DCM   H2           14.6560000000      -10.1830000000       -4.5910000000  CLST           8          1.0000000000
        39         8  DCM   CL1          14.4280000000      -12.4080000000       -5.4440000000  CLST           8          1.0000000000
        40         8  DCM   CL2          15.8000000000      -10.1420000000       -6.6910000000  CLST           8          1.0000000000
        41         9  DCM   C           -16.9630000000        5.1010000000        3.8450000000  CLST           9          1.0000000000
        42         9  DCM   H1          -16.5680000000        5.1190000000        2.8070000000  CLST           9          1.0000000000
        43         9  DCM   H2          -17.9500000000        5.6070000000        3.9070000000  CLST           9          1.0000000000
        44         9  DCM   CL1         -17.1490000000        3.3990000000        4.3650000000  CLST           9          1.0000000000
        45         9  DCM   CL2         -15.8100000000        5.9400000000        4.9220000000  CLST           9          1.0000000000
        46        10  DCM   C           -13.5170000000       13.7150000000        3.3210000000  CLST          10          1.0000000000
        47        10  DCM   H1          -12.7450000000       13.9340000000        2.5550000000  CLST          10          1.0000000000
        48        10  DCM   H2          -13.1940000000       14.0660000000        4.3240000000  CLST          10          1.0000000000
        49        10  DCM   CL1         -15.0350000000       14.5490000000        2.8750000000  CLST          10          1.0000000000
        50        10  DCM   CL2         -13.7930000000       11.9490000000        3.3840000000  CLST          10          1.0000000000
        51        11  DCM   C            -3.0610000000        6.3980000000       -3.0850000000  CLST          11          1.0000000000
        52        11  DCM   H1           -2.5010000000        7.1580000000       -2.5000000000  CLST          11          1.0000000000
        53        11  DCM   H2           -4.1580000000        6.5310000000       -2.9680000000  CLST          11          1.0000000000
        54        11  DCM   CL1          -2.6370000000        6.5620000000       -4.8130000000  CLST          11          1.0000000000
        55        11  DCM   CL2          -2.6090000000        4.7710000000       -2.5000000000  CLST          11          1.0000000000
        56        12  DCM   C            10.5190000000       15.7800000000       10.8510000000  CLST          12          1.0000000000
        57        12  DCM   H1           10.8100000000       15.2100000000       11.7580000000  CLST          12          1.0000000000
        58        12  DCM   H2           10.0200000000       15.1220000000       10.1080000000  CLST          12          1.0000000000
        59        12  DCM   CL1           9.3880000000       17.0830000000       11.3190000000  CLST          12          1.0000000000
        60        12  DCM   CL2          11.9850000000       16.4890000000       10.1120000000  CLST          12          1.0000000000
        61        13  DCM   C            -3.5090000000       -9.7820000000        5.8790000000  CLST          13          1.0000000000
        62        13  DCM   H1           -2.5010000000       -9.3200000000        5.9490000000  CLST          13          1.0000000000
        63        13  DCM   H2           -3.4960000000      -10.8270000000        6.2580000000  CLST          13          1.0000000000
        64        13  DCM   CL1          -4.6580000000       -8.8230000000        6.8540000000  CLST          13          1.0000000000
        65        13  DCM   CL2          -4.0270000000       -9.7920000000        4.1680000000  CLST          13          1.0000000000
        66        14  DCM   C           -15.1900000000      -14.5130000000      -14.4180000000  CLST          14          1.0000000000
        67        14  DCM   H1          -14.1900000000      -14.0470000000      -14.5450000000  CLST          14          1.0000000000
        68        14  DCM   H2          -15.7960000000      -13.9610000000      -13.6680000000  CLST          14          1.0000000000
        69        14  DCM   CL1         -16.0480000000      -14.4880000000      -15.9850000000  CLST          14          1.0000000000
        70        14  DCM   CL2         -14.9800000000      -16.2020000000      -13.8690000000  CLST          14          1.0000000000
        71        15  DCM   C            -5.7860000000       -3.3550000000       -4.0340000000  CLST          15          1.0000000000
        72        15  DCM   H1           -5.0130000000       -4.1370000000       -3.8760000000  CLST          15          1.0000000000
        73        15  DCM   H2           -5.3590000000       -2.4710000000       -4.5520000000  CLST          15          1.0000000000
        74        15  DCM   CL1          -7.1030000000       -4.0340000000       -5.0340000000  CLST          15          1.0000000000
        75        15  DCM   CL2          -6.4300000000       -2.8430000000       -2.4470000000  CLST          15          1.0000000000
        76        16  DCM   C             8.1670000000       -3.0320000000        5.8460000000  CLST          16          1.0000000000
        77        16  DCM   H1            7.4360000000       -2.5190000000        6.5060000000  CLST          16          1.0000000000
        78        16  DCM   H2            8.1020000000       -4.1350000000        5.9580000000  CLST          16          1.0000000000
        79        16  DCM   CL1           7.8180000000       -2.6000000000        4.1450000000  CLST          16          1.0000000000
        80        16  DCM   CL2           9.8170000000       -2.5000000000        6.2820000000  CLST          16          1.0000000000
        81        17  DCM   C            -9.5150000000        3.0360000000       -3.1430000000  CLST          17          1.0000000000
        82        17  DCM   H1           -9.5750000000        4.1400000000       -3.0550000000  CLST          17          1.0000000000
        83        17  DCM   H2          -10.2730000000        2.5400000000       -2.5000000000  CLST          17          1.0000000000
        84        17  DCM   CL1          -9.8030000000        2.5720000000       -4.8460000000  CLST          17          1.0000000000
        85        17  DCM   CL2          -7.8860000000        2.5000000000       -2.6370000000  CLST          17          1.0000000000
        86        18  DCM   C            -3.3920000000       -3.0780000000        4.1740000000  CLST          18          1.0000000000
        87        18  DCM   H1           -2.5900000000       -2.6720000000        4.8260000000  CLST          18          1.0000000000
        88        18  DCM   H2           -3.3880000000       -4.1890000000        4.1780000000  CLST          18          1.0000000000
        89        18  DCM   CL1          -4.9750000000       -2.5000000000        4.7730000000  CLST          18          1.0000000000
        90        18  DCM   CL2          -3.1290000000       -2.5010000000        2.5020000000  CLST          18          1.0000000000
        91        19  DCM   C            -3.7820000000       -4.6540000000       -9.9080000000  CLST          19          1.0000000000
        92        19  DCM   H1           -4.4140000000       -3.7460000000       -9.8210000000  CLST          19          1.0000000000
        93        19  DCM   H2           -3.3510000000       -4.7430000000      -10.9330000000  CLST          19          1.0000000000
        94        19  DCM   CL1          -2.4490000000       -4.5590000000       -8.7230000000  CLST          19          1.0000000000
        95        19  DCM   CL2          -4.7870000000       -6.0940000000       -9.5770000000  CLST          19          1.0000000000
        96        20  DCM   C            -3.8760000000       10.8810000000        3.5470000000  CLST          20          1.0000000000
        97        20  DCM   H1           -3.7880000000       11.9870000000        3.5880000000  CLST          20          1.0000000000
        98        20  DCM   H2           -3.7790000000       10.4350000000        4.5610000000  CLST          20          1.0000000000
        99        20  DCM   CL1          -5.4730000000       10.4450000000        2.8730000000  CLST          20          1.0000000000
       100        20  DCM   CL2          -2.5790000000       10.2330000000        2.5010000000  CLST          20          1.0000000000
       101        21  DCM   C             6.2020000000        7.8260000000       10.8670000000  CLST          21          1.0000000000
       102        21  DCM   H1            5.8680000000        8.8860000000       10.8610000000  CLST          21          1.0000000000
       103        21  DCM   H2            5.4120000000        7.1560000000       10.4660000000  CLST          21          1.0000000000
       104        21  DCM   CL1           7.6640000000        7.6730000000        9.8500000000  CLST          21          1.0000000000
       105        21  DCM   CL2           6.5780000000        7.3440000000       12.5470000000  CLST          21          1.0000000000
       106        22  DCM   C            16.4610000000       -3.3980000000      -11.4240000000  CLST          22          1.0000000000
       107        22  DCM   H1           15.5790000000       -2.8080000000      -11.0970000000  CLST          22          1.0000000000
       108        22  DCM   H2           16.4860000000       -4.3900000000      -10.9240000000  CLST          22          1.0000000000
       109        22  DCM   CL1          16.3730000000       -3.6410000000      -13.1940000000  CLST          22          1.0000000000
       110        22  DCM   CL2          17.9500000000       -2.5000000000      -11.0070000000  CLST          22          1.0000000000
       111        23  DCM   C            -3.4180000000        5.7660000000      -11.0370000000  CLST          23          1.0000000000
       112        23  DCM   H1           -2.5010000000        6.3570000000      -11.2480000000  CLST          23          1.0000000000
       113        23  DCM   H2           -3.9100000000        5.4380000000      -11.9740000000  CLST          23          1.0000000000
       114        23  DCM   CL1          -2.9710000000        4.3220000000      -10.0790000000  CLST          23          1.0000000000
       115        23  DCM   CL2          -4.5600000000        6.7770000000      -10.1060000000  CLST          23          1.0000000000
       116        24  DCM   C             7.5960000000      -17.0470000000      -11.5040000000  CLST          24          1.0000000000
       117        24  DCM   H1            8.1560000000      -17.7350000000      -12.1720000000  CLST          24          1.0000000000
       118        24  DCM   H2            8.1730000000      -16.8300000000      -10.5810000000  CLST          24          1.0000000000
       119        24  DCM   CL1           7.2900000000      -15.5140000000      -12.3720000000  CLST          24          1.0000000000
       120        24  DCM   CL2           6.0430000000      -17.8100000000      -11.0540000000  CLST          24          1.0000000000
       121        25  DCM   C            -3.1260000000      -11.1890000000       -3.4650000000  CLST          25          1.0000000000
       122        25  DCM   H1           -2.5000000000      -11.0690000000       -4.3750000000  CLST          25          1.0000000000
       123        25  DCM   H2           -4.1850000000      -11.3900000000       -3.7340000000  CLST          25          1.0000000000
       124        25  DCM   CL1          -2.5000000000      -12.5620000000       -2.5060000000  CLST          25          1.0000000000
       125        25  DCM   CL2          -3.0450000000       -9.6870000000       -2.5000000000  CLST          25          1.0000000000
       126        26  DCM   C            -4.0960000000        4.2720000000        3.2870000000  CLST          26          1.0000000000
       127        26  DCM   H1           -4.7840000000        4.9880000000        2.7860000000  CLST          26          1.0000000000
       128        26  DCM   H2           -4.2560000000        3.2380000000        2.9130000000  CLST          26          1.0000000000
       129        26  DCM   CL1          -2.4090000000        4.7570000000        2.9550000000  CLST          26          1.0000000000
       130        26  DCM   CL2          -4.4040000000        4.3070000000        5.0480000000  CLST          26          1.0000000000
       131        27  DCM   C            -8.0270000000       -4.3500000000      -14.4770000000  CLST          27          1.0000000000
       132        27  DCM   H1           -8.3920000000       -4.7210000000      -13.4960000000  CLST          27          1.0000000000
       133        27  DCM   H2           -7.1950000000       -4.9800000000      -14.8580000000  CLST          27          1.0000000000
       134        27  DCM   CL1          -9.3730000000       -4.3940000000      -15.6530000000  CLST          27          1.0000000000
       135        27  DCM   CL2          -7.4440000000       -2.6710000000      -14.2840000000  CLST          27          1.0000000000
       136        28  DCM   C            13.3580000000      -16.7340000000       15.8100000000  CLST          28          1.0000000000
       137        28  DCM   H1           13.8900000000      -17.6360000000       15.4390000000  CLST          28          1.0000000000
       138        28  DCM   H2           14.0270000000      -16.1030000000       16.4340000000  CLST          28          1.0000000000
       139        28  DCM   CL1          12.7910000000      -15.7760000000       14.4120000000  CLST          28          1.0000000000
       140        28  DCM   CL2          11.9610000000      -17.2510000000       16.7990000000  CLST          28          1.0000000000
       141        29  DCM   C           -16.5070000000        3.7950000000       -4.5490000000  CLST          29          1.0000000000
       142        29  DCM   H1          -16.6550000000        4.5470000000       -5.3540000000  CLST          29          1.0000000000
       143        29  DCM   H2          -17.4750000000        3.3470000000       -4.2400000000  CLST          29          1.0000000000
       144        29  DCM   CL1         -15.4330000000        2.5000000000       -5.1530000000  CLST          29          1.0000000000
       145        29  DCM   CL2         -15.7580000000        4.5960000000       -3.1370000000  CLST          29          1.0000000000
       146        30  DCM   C            -3.2730000000       11.4660000000      -15.6090000000  CLST          30          1.0000000000
       147        30  DCM   H1           -2.4610000000       10.7170000000      -15.7220000000  CLST          30          1.0000000000
       148        30  DCM   H2           -2.9360000000       12.4730000000      -15.9350000000  CLST          30          1.0000000000
       149        30  DCM   CL1          -4.6660000000       10.9670000000      -16.6130000000  CLST          30          1.0000000000
       150        30  DCM   CL2          -3.7590000000       11.5420000000      -13.8910000000  CLST          30          1.0000000000
