PSF EXT CMAP XPLOR

         1 !NTITLE
*  DATE:     7/16/26     22:22:12      CREATED BY USER: boittier                

      1780 !NATOM
         1 CLST     1        ACO      O1       OG2D3   -0.480000       15.9994           0
         2 CLST     1        ACO      C1       CG2O5    0.400000       12.0110           0
         3 CLST     1        ACO      C2       CG331   -0.230000       12.0110           0
         4 CLST     1        ACO      C3       CG331   -0.230000       12.0110           0
         5 CLST     1        ACO      H21      HGA3     0.900000E-01   1.00800           0
         6 CLST     1        ACO      H22      HGA3     0.900000E-01   1.00800           0
         7 CLST     1        ACO      H23      HGA3     0.900000E-01   1.00800           0
         8 CLST     1        ACO      H31      HGA3     0.900000E-01   1.00800           0
         9 CLST     1        ACO      H32      HGA3     0.900000E-01   1.00800           0
        10 CLST     1        ACO      H33      HGA3     0.900000E-01   1.00800           0
        11 CLST     2        ACO      O1       OG2D3   -0.480000       15.9994           0
        12 CLST     2        ACO      C1       CG2O5    0.400000       12.0110           0
        13 CLST     2        ACO      C2       CG331   -0.230000       12.0110           0
        14 CLST     2        ACO      C3       CG331   -0.230000       12.0110           0
        15 CLST     2        ACO      H21      HGA3     0.900000E-01   1.00800           0
        16 CLST     2        ACO      H22      HGA3     0.900000E-01   1.00800           0
        17 CLST     2        ACO      H23      HGA3     0.900000E-01   1.00800           0
        18 CLST     2        ACO      H31      HGA3     0.900000E-01   1.00800           0
        19 CLST     2        ACO      H32      HGA3     0.900000E-01   1.00800           0
        20 CLST     2        ACO      H33      HGA3     0.900000E-01   1.00800           0
        21 CLST     3        ACO      O1       OG2D3   -0.480000       15.9994           0
        22 CLST     3        ACO      C1       CG2O5    0.400000       12.0110           0
        23 CLST     3        ACO      C2       CG331   -0.230000       12.0110           0
        24 CLST     3        ACO      C3       CG331   -0.230000       12.0110           0
        25 CLST     3        ACO      H21      HGA3     0.900000E-01   1.00800           0
        26 CLST     3        ACO      H22      HGA3     0.900000E-01   1.00800           0
        27 CLST     3        ACO      H23      HGA3     0.900000E-01   1.00800           0
        28 CLST     3        ACO      H31      HGA3     0.900000E-01   1.00800           0
        29 CLST     3        ACO      H32      HGA3     0.900000E-01   1.00800           0
        30 CLST     3        ACO      H33      HGA3     0.900000E-01   1.00800           0
        31 CLST     4        ACO      O1       OG2D3   -0.480000       15.9994           0
        32 CLST     4        ACO      C1       CG2O5    0.400000       12.0110           0
        33 CLST     4        ACO      C2       CG331   -0.230000       12.0110           0
        34 CLST     4        ACO      C3       CG331   -0.230000       12.0110           0
        35 CLST     4        ACO      H21      HGA3     0.900000E-01   1.00800           0
        36 CLST     4        ACO      H22      HGA3     0.900000E-01   1.00800           0
        37 CLST     4        ACO      H23      HGA3     0.900000E-01   1.00800           0
        38 CLST     4        ACO      H31      HGA3     0.900000E-01   1.00800           0
        39 CLST     4        ACO      H32      HGA3     0.900000E-01   1.00800           0
        40 CLST     4        ACO      H33      HGA3     0.900000E-01   1.00800           0
        41 CLST     5        ACO      O1       OG2D3   -0.480000       15.9994           0
        42 CLST     5        ACO      C1       CG2O5    0.400000       12.0110           0
        43 CLST     5        ACO      C2       CG331   -0.230000       12.0110           0
        44 CLST     5        ACO      C3       CG331   -0.230000       12.0110           0
        45 CLST     5        ACO      H21      HGA3     0.900000E-01   1.00800           0
        46 CLST     5        ACO      H22      HGA3     0.900000E-01   1.00800           0
        47 CLST     5        ACO      H23      HGA3     0.900000E-01   1.00800           0
        48 CLST     5        ACO      H31      HGA3     0.900000E-01   1.00800           0
        49 CLST     5        ACO      H32      HGA3     0.900000E-01   1.00800           0
        50 CLST     5        ACO      H33      HGA3     0.900000E-01   1.00800           0
        51 CLST     6        ACO      O1       OG2D3   -0.480000       15.9994           0
        52 CLST     6        ACO      C1       CG2O5    0.400000       12.0110           0
        53 CLST     6        ACO      C2       CG331   -0.230000       12.0110           0
        54 CLST     6        ACO      C3       CG331   -0.230000       12.0110           0
        55 CLST     6        ACO      H21      HGA3     0.900000E-01   1.00800           0
        56 CLST     6        ACO      H22      HGA3     0.900000E-01   1.00800           0
        57 CLST     6        ACO      H23      HGA3     0.900000E-01   1.00800           0
        58 CLST     6        ACO      H31      HGA3     0.900000E-01   1.00800           0
        59 CLST     6        ACO      H32      HGA3     0.900000E-01   1.00800           0
        60 CLST     6        ACO      H33      HGA3     0.900000E-01   1.00800           0
        61 CLST     7        ACO      O1       OG2D3   -0.480000       15.9994           0
        62 CLST     7        ACO      C1       CG2O5    0.400000       12.0110           0
        63 CLST     7        ACO      C2       CG331   -0.230000       12.0110           0
        64 CLST     7        ACO      C3       CG331   -0.230000       12.0110           0
        65 CLST     7        ACO      H21      HGA3     0.900000E-01   1.00800           0
        66 CLST     7        ACO      H22      HGA3     0.900000E-01   1.00800           0
        67 CLST     7        ACO      H23      HGA3     0.900000E-01   1.00800           0
        68 CLST     7        ACO      H31      HGA3     0.900000E-01   1.00800           0
        69 CLST     7        ACO      H32      HGA3     0.900000E-01   1.00800           0
        70 CLST     7        ACO      H33      HGA3     0.900000E-01   1.00800           0
        71 CLST     8        ACO      O1       OG2D3   -0.480000       15.9994           0
        72 CLST     8        ACO      C1       CG2O5    0.400000       12.0110           0
        73 CLST     8        ACO      C2       CG331   -0.230000       12.0110           0
        74 CLST     8        ACO      C3       CG331   -0.230000       12.0110           0
        75 CLST     8        ACO      H21      HGA3     0.900000E-01   1.00800           0
        76 CLST     8        ACO      H22      HGA3     0.900000E-01   1.00800           0
        77 CLST     8        ACO      H23      HGA3     0.900000E-01   1.00800           0
        78 CLST     8        ACO      H31      HGA3     0.900000E-01   1.00800           0
        79 CLST     8        ACO      H32      HGA3     0.900000E-01   1.00800           0
        80 CLST     8        ACO      H33      HGA3     0.900000E-01   1.00800           0
        81 CLST     9        ACO      O1       OG2D3   -0.480000       15.9994           0
        82 CLST     9        ACO      C1       CG2O5    0.400000       12.0110           0
        83 CLST     9        ACO      C2       CG331   -0.230000       12.0110           0
        84 CLST     9        ACO      C3       CG331   -0.230000       12.0110           0
        85 CLST     9        ACO      H21      HGA3     0.900000E-01   1.00800           0
        86 CLST     9        ACO      H22      HGA3     0.900000E-01   1.00800           0
        87 CLST     9        ACO      H23      HGA3     0.900000E-01   1.00800           0
        88 CLST     9        ACO      H31      HGA3     0.900000E-01   1.00800           0
        89 CLST     9        ACO      H32      HGA3     0.900000E-01   1.00800           0
        90 CLST     9        ACO      H33      HGA3     0.900000E-01   1.00800           0
        91 CLST     10       ACO      O1       OG2D3   -0.480000       15.9994           0
        92 CLST     10       ACO      C1       CG2O5    0.400000       12.0110           0
        93 CLST     10       ACO      C2       CG331   -0.230000       12.0110           0
        94 CLST     10       ACO      C3       CG331   -0.230000       12.0110           0
        95 CLST     10       ACO      H21      HGA3     0.900000E-01   1.00800           0
        96 CLST     10       ACO      H22      HGA3     0.900000E-01   1.00800           0
        97 CLST     10       ACO      H23      HGA3     0.900000E-01   1.00800           0
        98 CLST     10       ACO      H31      HGA3     0.900000E-01   1.00800           0
        99 CLST     10       ACO      H32      HGA3     0.900000E-01   1.00800           0
       100 CLST     10       ACO      H33      HGA3     0.900000E-01   1.00800           0
       101 CLST     11       ACO      O1       OG2D3   -0.480000       15.9994           0
       102 CLST     11       ACO      C1       CG2O5    0.400000       12.0110           0
       103 CLST     11       ACO      C2       CG331   -0.230000       12.0110           0
       104 CLST     11       ACO      C3       CG331   -0.230000       12.0110           0
       105 CLST     11       ACO      H21      HGA3     0.900000E-01   1.00800           0
       106 CLST     11       ACO      H22      HGA3     0.900000E-01   1.00800           0
       107 CLST     11       ACO      H23      HGA3     0.900000E-01   1.00800           0
       108 CLST     11       ACO      H31      HGA3     0.900000E-01   1.00800           0
       109 CLST     11       ACO      H32      HGA3     0.900000E-01   1.00800           0
       110 CLST     11       ACO      H33      HGA3     0.900000E-01   1.00800           0
       111 CLST     12       ACO      O1       OG2D3   -0.480000       15.9994           0
       112 CLST     12       ACO      C1       CG2O5    0.400000       12.0110           0
       113 CLST     12       ACO      C2       CG331   -0.230000       12.0110           0
       114 CLST     12       ACO      C3       CG331   -0.230000       12.0110           0
       115 CLST     12       ACO      H21      HGA3     0.900000E-01   1.00800           0
       116 CLST     12       ACO      H22      HGA3     0.900000E-01   1.00800           0
       117 CLST     12       ACO      H23      HGA3     0.900000E-01   1.00800           0
       118 CLST     12       ACO      H31      HGA3     0.900000E-01   1.00800           0
       119 CLST     12       ACO      H32      HGA3     0.900000E-01   1.00800           0
       120 CLST     12       ACO      H33      HGA3     0.900000E-01   1.00800           0
       121 CLST     13       ACO      O1       OG2D3   -0.480000       15.9994           0
       122 CLST     13       ACO      C1       CG2O5    0.400000       12.0110           0
       123 CLST     13       ACO      C2       CG331   -0.230000       12.0110           0
       124 CLST     13       ACO      C3       CG331   -0.230000       12.0110           0
       125 CLST     13       ACO      H21      HGA3     0.900000E-01   1.00800           0
       126 CLST     13       ACO      H22      HGA3     0.900000E-01   1.00800           0
       127 CLST     13       ACO      H23      HGA3     0.900000E-01   1.00800           0
       128 CLST     13       ACO      H31      HGA3     0.900000E-01   1.00800           0
       129 CLST     13       ACO      H32      HGA3     0.900000E-01   1.00800           0
       130 CLST     13       ACO      H33      HGA3     0.900000E-01   1.00800           0
       131 CLST     14       ACO      O1       OG2D3   -0.480000       15.9994           0
       132 CLST     14       ACO      C1       CG2O5    0.400000       12.0110           0
       133 CLST     14       ACO      C2       CG331   -0.230000       12.0110           0
       134 CLST     14       ACO      C3       CG331   -0.230000       12.0110           0
       135 CLST     14       ACO      H21      HGA3     0.900000E-01   1.00800           0
       136 CLST     14       ACO      H22      HGA3     0.900000E-01   1.00800           0
       137 CLST     14       ACO      H23      HGA3     0.900000E-01   1.00800           0
       138 CLST     14       ACO      H31      HGA3     0.900000E-01   1.00800           0
       139 CLST     14       ACO      H32      HGA3     0.900000E-01   1.00800           0
       140 CLST     14       ACO      H33      HGA3     0.900000E-01   1.00800           0
       141 CLST     15       ACO      O1       OG2D3   -0.480000       15.9994           0
       142 CLST     15       ACO      C1       CG2O5    0.400000       12.0110           0
       143 CLST     15       ACO      C2       CG331   -0.230000       12.0110           0
       144 CLST     15       ACO      C3       CG331   -0.230000       12.0110           0
       145 CLST     15       ACO      H21      HGA3     0.900000E-01   1.00800           0
       146 CLST     15       ACO      H22      HGA3     0.900000E-01   1.00800           0
       147 CLST     15       ACO      H23      HGA3     0.900000E-01   1.00800           0
       148 CLST     15       ACO      H31      HGA3     0.900000E-01   1.00800           0
       149 CLST     15       ACO      H32      HGA3     0.900000E-01   1.00800           0
       150 CLST     15       ACO      H33      HGA3     0.900000E-01   1.00800           0
       151 CLST     16       ACO      O1       OG2D3   -0.480000       15.9994           0
       152 CLST     16       ACO      C1       CG2O5    0.400000       12.0110           0
       153 CLST     16       ACO      C2       CG331   -0.230000       12.0110           0
       154 CLST     16       ACO      C3       CG331   -0.230000       12.0110           0
       155 CLST     16       ACO      H21      HGA3     0.900000E-01   1.00800           0
       156 CLST     16       ACO      H22      HGA3     0.900000E-01   1.00800           0
       157 CLST     16       ACO      H23      HGA3     0.900000E-01   1.00800           0
       158 CLST     16       ACO      H31      HGA3     0.900000E-01   1.00800           0
       159 CLST     16       ACO      H32      HGA3     0.900000E-01   1.00800           0
       160 CLST     16       ACO      H33      HGA3     0.900000E-01   1.00800           0
       161 CLST     17       ACO      O1       OG2D3   -0.480000       15.9994           0
       162 CLST     17       ACO      C1       CG2O5    0.400000       12.0110           0
       163 CLST     17       ACO      C2       CG331   -0.230000       12.0110           0
       164 CLST     17       ACO      C3       CG331   -0.230000       12.0110           0
       165 CLST     17       ACO      H21      HGA3     0.900000E-01   1.00800           0
       166 CLST     17       ACO      H22      HGA3     0.900000E-01   1.00800           0
       167 CLST     17       ACO      H23      HGA3     0.900000E-01   1.00800           0
       168 CLST     17       ACO      H31      HGA3     0.900000E-01   1.00800           0
       169 CLST     17       ACO      H32      HGA3     0.900000E-01   1.00800           0
       170 CLST     17       ACO      H33      HGA3     0.900000E-01   1.00800           0
       171 CLST     18       ACO      O1       OG2D3   -0.480000       15.9994           0
       172 CLST     18       ACO      C1       CG2O5    0.400000       12.0110           0
       173 CLST     18       ACO      C2       CG331   -0.230000       12.0110           0
       174 CLST     18       ACO      C3       CG331   -0.230000       12.0110           0
       175 CLST     18       ACO      H21      HGA3     0.900000E-01   1.00800           0
       176 CLST     18       ACO      H22      HGA3     0.900000E-01   1.00800           0
       177 CLST     18       ACO      H23      HGA3     0.900000E-01   1.00800           0
       178 CLST     18       ACO      H31      HGA3     0.900000E-01   1.00800           0
       179 CLST     18       ACO      H32      HGA3     0.900000E-01   1.00800           0
       180 CLST     18       ACO      H33      HGA3     0.900000E-01   1.00800           0
       181 CLST     19       ACO      O1       OG2D3   -0.480000       15.9994           0
       182 CLST     19       ACO      C1       CG2O5    0.400000       12.0110           0
       183 CLST     19       ACO      C2       CG331   -0.230000       12.0110           0
       184 CLST     19       ACO      C3       CG331   -0.230000       12.0110           0
       185 CLST     19       ACO      H21      HGA3     0.900000E-01   1.00800           0
       186 CLST     19       ACO      H22      HGA3     0.900000E-01   1.00800           0
       187 CLST     19       ACO      H23      HGA3     0.900000E-01   1.00800           0
       188 CLST     19       ACO      H31      HGA3     0.900000E-01   1.00800           0
       189 CLST     19       ACO      H32      HGA3     0.900000E-01   1.00800           0
       190 CLST     19       ACO      H33      HGA3     0.900000E-01   1.00800           0
       191 CLST     20       ACO      O1       OG2D3   -0.480000       15.9994           0
       192 CLST     20       ACO      C1       CG2O5    0.400000       12.0110           0
       193 CLST     20       ACO      C2       CG331   -0.230000       12.0110           0
       194 CLST     20       ACO      C3       CG331   -0.230000       12.0110           0
       195 CLST     20       ACO      H21      HGA3     0.900000E-01   1.00800           0
       196 CLST     20       ACO      H22      HGA3     0.900000E-01   1.00800           0
       197 CLST     20       ACO      H23      HGA3     0.900000E-01   1.00800           0
       198 CLST     20       ACO      H31      HGA3     0.900000E-01   1.00800           0
       199 CLST     20       ACO      H32      HGA3     0.900000E-01   1.00800           0
       200 CLST     20       ACO      H33      HGA3     0.900000E-01   1.00800           0
       201 CLST     21       ACO      O1       OG2D3   -0.480000       15.9994           0
       202 CLST     21       ACO      C1       CG2O5    0.400000       12.0110           0
       203 CLST     21       ACO      C2       CG331   -0.230000       12.0110           0
       204 CLST     21       ACO      C3       CG331   -0.230000       12.0110           0
       205 CLST     21       ACO      H21      HGA3     0.900000E-01   1.00800           0
       206 CLST     21       ACO      H22      HGA3     0.900000E-01   1.00800           0
       207 CLST     21       ACO      H23      HGA3     0.900000E-01   1.00800           0
       208 CLST     21       ACO      H31      HGA3     0.900000E-01   1.00800           0
       209 CLST     21       ACO      H32      HGA3     0.900000E-01   1.00800           0
       210 CLST     21       ACO      H33      HGA3     0.900000E-01   1.00800           0
       211 CLST     22       ACO      O1       OG2D3   -0.480000       15.9994           0
       212 CLST     22       ACO      C1       CG2O5    0.400000       12.0110           0
       213 CLST     22       ACO      C2       CG331   -0.230000       12.0110           0
       214 CLST     22       ACO      C3       CG331   -0.230000       12.0110           0
       215 CLST     22       ACO      H21      HGA3     0.900000E-01   1.00800           0
       216 CLST     22       ACO      H22      HGA3     0.900000E-01   1.00800           0
       217 CLST     22       ACO      H23      HGA3     0.900000E-01   1.00800           0
       218 CLST     22       ACO      H31      HGA3     0.900000E-01   1.00800           0
       219 CLST     22       ACO      H32      HGA3     0.900000E-01   1.00800           0
       220 CLST     22       ACO      H33      HGA3     0.900000E-01   1.00800           0
       221 CLST     23       ACO      O1       OG2D3   -0.480000       15.9994           0
       222 CLST     23       ACO      C1       CG2O5    0.400000       12.0110           0
       223 CLST     23       ACO      C2       CG331   -0.230000       12.0110           0
       224 CLST     23       ACO      C3       CG331   -0.230000       12.0110           0
       225 CLST     23       ACO      H21      HGA3     0.900000E-01   1.00800           0
       226 CLST     23       ACO      H22      HGA3     0.900000E-01   1.00800           0
       227 CLST     23       ACO      H23      HGA3     0.900000E-01   1.00800           0
       228 CLST     23       ACO      H31      HGA3     0.900000E-01   1.00800           0
       229 CLST     23       ACO      H32      HGA3     0.900000E-01   1.00800           0
       230 CLST     23       ACO      H33      HGA3     0.900000E-01   1.00800           0
       231 CLST     24       ACO      O1       OG2D3   -0.480000       15.9994           0
       232 CLST     24       ACO      C1       CG2O5    0.400000       12.0110           0
       233 CLST     24       ACO      C2       CG331   -0.230000       12.0110           0
       234 CLST     24       ACO      C3       CG331   -0.230000       12.0110           0
       235 CLST     24       ACO      H21      HGA3     0.900000E-01   1.00800           0
       236 CLST     24       ACO      H22      HGA3     0.900000E-01   1.00800           0
       237 CLST     24       ACO      H23      HGA3     0.900000E-01   1.00800           0
       238 CLST     24       ACO      H31      HGA3     0.900000E-01   1.00800           0
       239 CLST     24       ACO      H32      HGA3     0.900000E-01   1.00800           0
       240 CLST     24       ACO      H33      HGA3     0.900000E-01   1.00800           0
       241 CLST     25       ACO      O1       OG2D3   -0.480000       15.9994           0
       242 CLST     25       ACO      C1       CG2O5    0.400000       12.0110           0
       243 CLST     25       ACO      C2       CG331   -0.230000       12.0110           0
       244 CLST     25       ACO      C3       CG331   -0.230000       12.0110           0
       245 CLST     25       ACO      H21      HGA3     0.900000E-01   1.00800           0
       246 CLST     25       ACO      H22      HGA3     0.900000E-01   1.00800           0
       247 CLST     25       ACO      H23      HGA3     0.900000E-01   1.00800           0
       248 CLST     25       ACO      H31      HGA3     0.900000E-01   1.00800           0
       249 CLST     25       ACO      H32      HGA3     0.900000E-01   1.00800           0
       250 CLST     25       ACO      H33      HGA3     0.900000E-01   1.00800           0
       251 CLST     26       ACO      O1       OG2D3   -0.480000       15.9994           0
       252 CLST     26       ACO      C1       CG2O5    0.400000       12.0110           0
       253 CLST     26       ACO      C2       CG331   -0.230000       12.0110           0
       254 CLST     26       ACO      C3       CG331   -0.230000       12.0110           0
       255 CLST     26       ACO      H21      HGA3     0.900000E-01   1.00800           0
       256 CLST     26       ACO      H22      HGA3     0.900000E-01   1.00800           0
       257 CLST     26       ACO      H23      HGA3     0.900000E-01   1.00800           0
       258 CLST     26       ACO      H31      HGA3     0.900000E-01   1.00800           0
       259 CLST     26       ACO      H32      HGA3     0.900000E-01   1.00800           0
       260 CLST     26       ACO      H33      HGA3     0.900000E-01   1.00800           0
       261 CLST     27       ACO      O1       OG2D3   -0.480000       15.9994           0
       262 CLST     27       ACO      C1       CG2O5    0.400000       12.0110           0
       263 CLST     27       ACO      C2       CG331   -0.230000       12.0110           0
       264 CLST     27       ACO      C3       CG331   -0.230000       12.0110           0
       265 CLST     27       ACO      H21      HGA3     0.900000E-01   1.00800           0
       266 CLST     27       ACO      H22      HGA3     0.900000E-01   1.00800           0
       267 CLST     27       ACO      H23      HGA3     0.900000E-01   1.00800           0
       268 CLST     27       ACO      H31      HGA3     0.900000E-01   1.00800           0
       269 CLST     27       ACO      H32      HGA3     0.900000E-01   1.00800           0
       270 CLST     27       ACO      H33      HGA3     0.900000E-01   1.00800           0
       271 CLST     28       ACO      O1       OG2D3   -0.480000       15.9994           0
       272 CLST     28       ACO      C1       CG2O5    0.400000       12.0110           0
       273 CLST     28       ACO      C2       CG331   -0.230000       12.0110           0
       274 CLST     28       ACO      C3       CG331   -0.230000       12.0110           0
       275 CLST     28       ACO      H21      HGA3     0.900000E-01   1.00800           0
       276 CLST     28       ACO      H22      HGA3     0.900000E-01   1.00800           0
       277 CLST     28       ACO      H23      HGA3     0.900000E-01   1.00800           0
       278 CLST     28       ACO      H31      HGA3     0.900000E-01   1.00800           0
       279 CLST     28       ACO      H32      HGA3     0.900000E-01   1.00800           0
       280 CLST     28       ACO      H33      HGA3     0.900000E-01   1.00800           0
       281 CLST     29       ACO      O1       OG2D3   -0.480000       15.9994           0
       282 CLST     29       ACO      C1       CG2O5    0.400000       12.0110           0
       283 CLST     29       ACO      C2       CG331   -0.230000       12.0110           0
       284 CLST     29       ACO      C3       CG331   -0.230000       12.0110           0
       285 CLST     29       ACO      H21      HGA3     0.900000E-01   1.00800           0
       286 CLST     29       ACO      H22      HGA3     0.900000E-01   1.00800           0
       287 CLST     29       ACO      H23      HGA3     0.900000E-01   1.00800           0
       288 CLST     29       ACO      H31      HGA3     0.900000E-01   1.00800           0
       289 CLST     29       ACO      H32      HGA3     0.900000E-01   1.00800           0
       290 CLST     29       ACO      H33      HGA3     0.900000E-01   1.00800           0
       291 CLST     30       ACO      O1       OG2D3   -0.480000       15.9994           0
       292 CLST     30       ACO      C1       CG2O5    0.400000       12.0110           0
       293 CLST     30       ACO      C2       CG331   -0.230000       12.0110           0
       294 CLST     30       ACO      C3       CG331   -0.230000       12.0110           0
       295 CLST     30       ACO      H21      HGA3     0.900000E-01   1.00800           0
       296 CLST     30       ACO      H22      HGA3     0.900000E-01   1.00800           0
       297 CLST     30       ACO      H23      HGA3     0.900000E-01   1.00800           0
       298 CLST     30       ACO      H31      HGA3     0.900000E-01   1.00800           0
       299 CLST     30       ACO      H32      HGA3     0.900000E-01   1.00800           0
       300 CLST     30       ACO      H33      HGA3     0.900000E-01   1.00800           0
       301 CLST     31       ACO      O1       OG2D3   -0.480000       15.9994           0
       302 CLST     31       ACO      C1       CG2O5    0.400000       12.0110           0
       303 CLST     31       ACO      C2       CG331   -0.230000       12.0110           0
       304 CLST     31       ACO      C3       CG331   -0.230000       12.0110           0
       305 CLST     31       ACO      H21      HGA3     0.900000E-01   1.00800           0
       306 CLST     31       ACO      H22      HGA3     0.900000E-01   1.00800           0
       307 CLST     31       ACO      H23      HGA3     0.900000E-01   1.00800           0
       308 CLST     31       ACO      H31      HGA3     0.900000E-01   1.00800           0
       309 CLST     31       ACO      H32      HGA3     0.900000E-01   1.00800           0
       310 CLST     31       ACO      H33      HGA3     0.900000E-01   1.00800           0
       311 CLST     32       ACO      O1       OG2D3   -0.480000       15.9994           0
       312 CLST     32       ACO      C1       CG2O5    0.400000       12.0110           0
       313 CLST     32       ACO      C2       CG331   -0.230000       12.0110           0
       314 CLST     32       ACO      C3       CG331   -0.230000       12.0110           0
       315 CLST     32       ACO      H21      HGA3     0.900000E-01   1.00800           0
       316 CLST     32       ACO      H22      HGA3     0.900000E-01   1.00800           0
       317 CLST     32       ACO      H23      HGA3     0.900000E-01   1.00800           0
       318 CLST     32       ACO      H31      HGA3     0.900000E-01   1.00800           0
       319 CLST     32       ACO      H32      HGA3     0.900000E-01   1.00800           0
       320 CLST     32       ACO      H33      HGA3     0.900000E-01   1.00800           0
       321 CLST     33       ACO      O1       OG2D3   -0.480000       15.9994           0
       322 CLST     33       ACO      C1       CG2O5    0.400000       12.0110           0
       323 CLST     33       ACO      C2       CG331   -0.230000       12.0110           0
       324 CLST     33       ACO      C3       CG331   -0.230000       12.0110           0
       325 CLST     33       ACO      H21      HGA3     0.900000E-01   1.00800           0
       326 CLST     33       ACO      H22      HGA3     0.900000E-01   1.00800           0
       327 CLST     33       ACO      H23      HGA3     0.900000E-01   1.00800           0
       328 CLST     33       ACO      H31      HGA3     0.900000E-01   1.00800           0
       329 CLST     33       ACO      H32      HGA3     0.900000E-01   1.00800           0
       330 CLST     33       ACO      H33      HGA3     0.900000E-01   1.00800           0
       331 CLST     34       ACO      O1       OG2D3   -0.480000       15.9994           0
       332 CLST     34       ACO      C1       CG2O5    0.400000       12.0110           0
       333 CLST     34       ACO      C2       CG331   -0.230000       12.0110           0
       334 CLST     34       ACO      C3       CG331   -0.230000       12.0110           0
       335 CLST     34       ACO      H21      HGA3     0.900000E-01   1.00800           0
       336 CLST     34       ACO      H22      HGA3     0.900000E-01   1.00800           0
       337 CLST     34       ACO      H23      HGA3     0.900000E-01   1.00800           0
       338 CLST     34       ACO      H31      HGA3     0.900000E-01   1.00800           0
       339 CLST     34       ACO      H32      HGA3     0.900000E-01   1.00800           0
       340 CLST     34       ACO      H33      HGA3     0.900000E-01   1.00800           0
       341 CLST     35       ACO      O1       OG2D3   -0.480000       15.9994           0
       342 CLST     35       ACO      C1       CG2O5    0.400000       12.0110           0
       343 CLST     35       ACO      C2       CG331   -0.230000       12.0110           0
       344 CLST     35       ACO      C3       CG331   -0.230000       12.0110           0
       345 CLST     35       ACO      H21      HGA3     0.900000E-01   1.00800           0
       346 CLST     35       ACO      H22      HGA3     0.900000E-01   1.00800           0
       347 CLST     35       ACO      H23      HGA3     0.900000E-01   1.00800           0
       348 CLST     35       ACO      H31      HGA3     0.900000E-01   1.00800           0
       349 CLST     35       ACO      H32      HGA3     0.900000E-01   1.00800           0
       350 CLST     35       ACO      H33      HGA3     0.900000E-01   1.00800           0
       351 CLST     36       ACO      O1       OG2D3   -0.480000       15.9994           0
       352 CLST     36       ACO      C1       CG2O5    0.400000       12.0110           0
       353 CLST     36       ACO      C2       CG331   -0.230000       12.0110           0
       354 CLST     36       ACO      C3       CG331   -0.230000       12.0110           0
       355 CLST     36       ACO      H21      HGA3     0.900000E-01   1.00800           0
       356 CLST     36       ACO      H22      HGA3     0.900000E-01   1.00800           0
       357 CLST     36       ACO      H23      HGA3     0.900000E-01   1.00800           0
       358 CLST     36       ACO      H31      HGA3     0.900000E-01   1.00800           0
       359 CLST     36       ACO      H32      HGA3     0.900000E-01   1.00800           0
       360 CLST     36       ACO      H33      HGA3     0.900000E-01   1.00800           0
       361 CLST     37       ACO      O1       OG2D3   -0.480000       15.9994           0
       362 CLST     37       ACO      C1       CG2O5    0.400000       12.0110           0
       363 CLST     37       ACO      C2       CG331   -0.230000       12.0110           0
       364 CLST     37       ACO      C3       CG331   -0.230000       12.0110           0
       365 CLST     37       ACO      H21      HGA3     0.900000E-01   1.00800           0
       366 CLST     37       ACO      H22      HGA3     0.900000E-01   1.00800           0
       367 CLST     37       ACO      H23      HGA3     0.900000E-01   1.00800           0
       368 CLST     37       ACO      H31      HGA3     0.900000E-01   1.00800           0
       369 CLST     37       ACO      H32      HGA3     0.900000E-01   1.00800           0
       370 CLST     37       ACO      H33      HGA3     0.900000E-01   1.00800           0
       371 CLST     38       ACO      O1       OG2D3   -0.480000       15.9994           0
       372 CLST     38       ACO      C1       CG2O5    0.400000       12.0110           0
       373 CLST     38       ACO      C2       CG331   -0.230000       12.0110           0
       374 CLST     38       ACO      C3       CG331   -0.230000       12.0110           0
       375 CLST     38       ACO      H21      HGA3     0.900000E-01   1.00800           0
       376 CLST     38       ACO      H22      HGA3     0.900000E-01   1.00800           0
       377 CLST     38       ACO      H23      HGA3     0.900000E-01   1.00800           0
       378 CLST     38       ACO      H31      HGA3     0.900000E-01   1.00800           0
       379 CLST     38       ACO      H32      HGA3     0.900000E-01   1.00800           0
       380 CLST     38       ACO      H33      HGA3     0.900000E-01   1.00800           0
       381 CLST     39       ACO      O1       OG2D3   -0.480000       15.9994           0
       382 CLST     39       ACO      C1       CG2O5    0.400000       12.0110           0
       383 CLST     39       ACO      C2       CG331   -0.230000       12.0110           0
       384 CLST     39       ACO      C3       CG331   -0.230000       12.0110           0
       385 CLST     39       ACO      H21      HGA3     0.900000E-01   1.00800           0
       386 CLST     39       ACO      H22      HGA3     0.900000E-01   1.00800           0
       387 CLST     39       ACO      H23      HGA3     0.900000E-01   1.00800           0
       388 CLST     39       ACO      H31      HGA3     0.900000E-01   1.00800           0
       389 CLST     39       ACO      H32      HGA3     0.900000E-01   1.00800           0
       390 CLST     39       ACO      H33      HGA3     0.900000E-01   1.00800           0
       391 CLST     40       ACO      O1       OG2D3   -0.480000       15.9994           0
       392 CLST     40       ACO      C1       CG2O5    0.400000       12.0110           0
       393 CLST     40       ACO      C2       CG331   -0.230000       12.0110           0
       394 CLST     40       ACO      C3       CG331   -0.230000       12.0110           0
       395 CLST     40       ACO      H21      HGA3     0.900000E-01   1.00800           0
       396 CLST     40       ACO      H22      HGA3     0.900000E-01   1.00800           0
       397 CLST     40       ACO      H23      HGA3     0.900000E-01   1.00800           0
       398 CLST     40       ACO      H31      HGA3     0.900000E-01   1.00800           0
       399 CLST     40       ACO      H32      HGA3     0.900000E-01   1.00800           0
       400 CLST     40       ACO      H33      HGA3     0.900000E-01   1.00800           0
       401 CLST     41       ACO      O1       OG2D3   -0.480000       15.9994           0
       402 CLST     41       ACO      C1       CG2O5    0.400000       12.0110           0
       403 CLST     41       ACO      C2       CG331   -0.230000       12.0110           0
       404 CLST     41       ACO      C3       CG331   -0.230000       12.0110           0
       405 CLST     41       ACO      H21      HGA3     0.900000E-01   1.00800           0
       406 CLST     41       ACO      H22      HGA3     0.900000E-01   1.00800           0
       407 CLST     41       ACO      H23      HGA3     0.900000E-01   1.00800           0
       408 CLST     41       ACO      H31      HGA3     0.900000E-01   1.00800           0
       409 CLST     41       ACO      H32      HGA3     0.900000E-01   1.00800           0
       410 CLST     41       ACO      H33      HGA3     0.900000E-01   1.00800           0
       411 CLST     42       ACO      O1       OG2D3   -0.480000       15.9994           0
       412 CLST     42       ACO      C1       CG2O5    0.400000       12.0110           0
       413 CLST     42       ACO      C2       CG331   -0.230000       12.0110           0
       414 CLST     42       ACO      C3       CG331   -0.230000       12.0110           0
       415 CLST     42       ACO      H21      HGA3     0.900000E-01   1.00800           0
       416 CLST     42       ACO      H22      HGA3     0.900000E-01   1.00800           0
       417 CLST     42       ACO      H23      HGA3     0.900000E-01   1.00800           0
       418 CLST     42       ACO      H31      HGA3     0.900000E-01   1.00800           0
       419 CLST     42       ACO      H32      HGA3     0.900000E-01   1.00800           0
       420 CLST     42       ACO      H33      HGA3     0.900000E-01   1.00800           0
       421 CLST     43       ACO      O1       OG2D3   -0.480000       15.9994           0
       422 CLST     43       ACO      C1       CG2O5    0.400000       12.0110           0
       423 CLST     43       ACO      C2       CG331   -0.230000       12.0110           0
       424 CLST     43       ACO      C3       CG331   -0.230000       12.0110           0
       425 CLST     43       ACO      H21      HGA3     0.900000E-01   1.00800           0
       426 CLST     43       ACO      H22      HGA3     0.900000E-01   1.00800           0
       427 CLST     43       ACO      H23      HGA3     0.900000E-01   1.00800           0
       428 CLST     43       ACO      H31      HGA3     0.900000E-01   1.00800           0
       429 CLST     43       ACO      H32      HGA3     0.900000E-01   1.00800           0
       430 CLST     43       ACO      H33      HGA3     0.900000E-01   1.00800           0
       431 CLST     44       ACO      O1       OG2D3   -0.480000       15.9994           0
       432 CLST     44       ACO      C1       CG2O5    0.400000       12.0110           0
       433 CLST     44       ACO      C2       CG331   -0.230000       12.0110           0
       434 CLST     44       ACO      C3       CG331   -0.230000       12.0110           0
       435 CLST     44       ACO      H21      HGA3     0.900000E-01   1.00800           0
       436 CLST     44       ACO      H22      HGA3     0.900000E-01   1.00800           0
       437 CLST     44       ACO      H23      HGA3     0.900000E-01   1.00800           0
       438 CLST     44       ACO      H31      HGA3     0.900000E-01   1.00800           0
       439 CLST     44       ACO      H32      HGA3     0.900000E-01   1.00800           0
       440 CLST     44       ACO      H33      HGA3     0.900000E-01   1.00800           0
       441 CLST     45       ACO      O1       OG2D3   -0.480000       15.9994           0
       442 CLST     45       ACO      C1       CG2O5    0.400000       12.0110           0
       443 CLST     45       ACO      C2       CG331   -0.230000       12.0110           0
       444 CLST     45       ACO      C3       CG331   -0.230000       12.0110           0
       445 CLST     45       ACO      H21      HGA3     0.900000E-01   1.00800           0
       446 CLST     45       ACO      H22      HGA3     0.900000E-01   1.00800           0
       447 CLST     45       ACO      H23      HGA3     0.900000E-01   1.00800           0
       448 CLST     45       ACO      H31      HGA3     0.900000E-01   1.00800           0
       449 CLST     45       ACO      H32      HGA3     0.900000E-01   1.00800           0
       450 CLST     45       ACO      H33      HGA3     0.900000E-01   1.00800           0
       451 CLST     46       ACO      O1       OG2D3   -0.480000       15.9994           0
       452 CLST     46       ACO      C1       CG2O5    0.400000       12.0110           0
       453 CLST     46       ACO      C2       CG331   -0.230000       12.0110           0
       454 CLST     46       ACO      C3       CG331   -0.230000       12.0110           0
       455 CLST     46       ACO      H21      HGA3     0.900000E-01   1.00800           0
       456 CLST     46       ACO      H22      HGA3     0.900000E-01   1.00800           0
       457 CLST     46       ACO      H23      HGA3     0.900000E-01   1.00800           0
       458 CLST     46       ACO      H31      HGA3     0.900000E-01   1.00800           0
       459 CLST     46       ACO      H32      HGA3     0.900000E-01   1.00800           0
       460 CLST     46       ACO      H33      HGA3     0.900000E-01   1.00800           0
       461 CLST     47       ACO      O1       OG2D3   -0.480000       15.9994           0
       462 CLST     47       ACO      C1       CG2O5    0.400000       12.0110           0
       463 CLST     47       ACO      C2       CG331   -0.230000       12.0110           0
       464 CLST     47       ACO      C3       CG331   -0.230000       12.0110           0
       465 CLST     47       ACO      H21      HGA3     0.900000E-01   1.00800           0
       466 CLST     47       ACO      H22      HGA3     0.900000E-01   1.00800           0
       467 CLST     47       ACO      H23      HGA3     0.900000E-01   1.00800           0
       468 CLST     47       ACO      H31      HGA3     0.900000E-01   1.00800           0
       469 CLST     47       ACO      H32      HGA3     0.900000E-01   1.00800           0
       470 CLST     47       ACO      H33      HGA3     0.900000E-01   1.00800           0
       471 CLST     48       ACO      O1       OG2D3   -0.480000       15.9994           0
       472 CLST     48       ACO      C1       CG2O5    0.400000       12.0110           0
       473 CLST     48       ACO      C2       CG331   -0.230000       12.0110           0
       474 CLST     48       ACO      C3       CG331   -0.230000       12.0110           0
       475 CLST     48       ACO      H21      HGA3     0.900000E-01   1.00800           0
       476 CLST     48       ACO      H22      HGA3     0.900000E-01   1.00800           0
       477 CLST     48       ACO      H23      HGA3     0.900000E-01   1.00800           0
       478 CLST     48       ACO      H31      HGA3     0.900000E-01   1.00800           0
       479 CLST     48       ACO      H32      HGA3     0.900000E-01   1.00800           0
       480 CLST     48       ACO      H33      HGA3     0.900000E-01   1.00800           0
       481 CLST     49       ACO      O1       OG2D3   -0.480000       15.9994           0
       482 CLST     49       ACO      C1       CG2O5    0.400000       12.0110           0
       483 CLST     49       ACO      C2       CG331   -0.230000       12.0110           0
       484 CLST     49       ACO      C3       CG331   -0.230000       12.0110           0
       485 CLST     49       ACO      H21      HGA3     0.900000E-01   1.00800           0
       486 CLST     49       ACO      H22      HGA3     0.900000E-01   1.00800           0
       487 CLST     49       ACO      H23      HGA3     0.900000E-01   1.00800           0
       488 CLST     49       ACO      H31      HGA3     0.900000E-01   1.00800           0
       489 CLST     49       ACO      H32      HGA3     0.900000E-01   1.00800           0
       490 CLST     49       ACO      H33      HGA3     0.900000E-01   1.00800           0
       491 CLST     50       ACO      O1       OG2D3   -0.480000       15.9994           0
       492 CLST     50       ACO      C1       CG2O5    0.400000       12.0110           0
       493 CLST     50       ACO      C2       CG331   -0.230000       12.0110           0
       494 CLST     50       ACO      C3       CG331   -0.230000       12.0110           0
       495 CLST     50       ACO      H21      HGA3     0.900000E-01   1.00800           0
       496 CLST     50       ACO      H22      HGA3     0.900000E-01   1.00800           0
       497 CLST     50       ACO      H23      HGA3     0.900000E-01   1.00800           0
       498 CLST     50       ACO      H31      HGA3     0.900000E-01   1.00800           0
       499 CLST     50       ACO      H32      HGA3     0.900000E-01   1.00800           0
       500 CLST     50       ACO      H33      HGA3     0.900000E-01   1.00800           0
       501 CLST     51       ACO      O1       OG2D3   -0.480000       15.9994           0
       502 CLST     51       ACO      C1       CG2O5    0.400000       12.0110           0
       503 CLST     51       ACO      C2       CG331   -0.230000       12.0110           0
       504 CLST     51       ACO      C3       CG331   -0.230000       12.0110           0
       505 CLST     51       ACO      H21      HGA3     0.900000E-01   1.00800           0
       506 CLST     51       ACO      H22      HGA3     0.900000E-01   1.00800           0
       507 CLST     51       ACO      H23      HGA3     0.900000E-01   1.00800           0
       508 CLST     51       ACO      H31      HGA3     0.900000E-01   1.00800           0
       509 CLST     51       ACO      H32      HGA3     0.900000E-01   1.00800           0
       510 CLST     51       ACO      H33      HGA3     0.900000E-01   1.00800           0
       511 CLST     52       ACO      O1       OG2D3   -0.480000       15.9994           0
       512 CLST     52       ACO      C1       CG2O5    0.400000       12.0110           0
       513 CLST     52       ACO      C2       CG331   -0.230000       12.0110           0
       514 CLST     52       ACO      C3       CG331   -0.230000       12.0110           0
       515 CLST     52       ACO      H21      HGA3     0.900000E-01   1.00800           0
       516 CLST     52       ACO      H22      HGA3     0.900000E-01   1.00800           0
       517 CLST     52       ACO      H23      HGA3     0.900000E-01   1.00800           0
       518 CLST     52       ACO      H31      HGA3     0.900000E-01   1.00800           0
       519 CLST     52       ACO      H32      HGA3     0.900000E-01   1.00800           0
       520 CLST     52       ACO      H33      HGA3     0.900000E-01   1.00800           0
       521 CLST     53       ACO      O1       OG2D3   -0.480000       15.9994           0
       522 CLST     53       ACO      C1       CG2O5    0.400000       12.0110           0
       523 CLST     53       ACO      C2       CG331   -0.230000       12.0110           0
       524 CLST     53       ACO      C3       CG331   -0.230000       12.0110           0
       525 CLST     53       ACO      H21      HGA3     0.900000E-01   1.00800           0
       526 CLST     53       ACO      H22      HGA3     0.900000E-01   1.00800           0
       527 CLST     53       ACO      H23      HGA3     0.900000E-01   1.00800           0
       528 CLST     53       ACO      H31      HGA3     0.900000E-01   1.00800           0
       529 CLST     53       ACO      H32      HGA3     0.900000E-01   1.00800           0
       530 CLST     53       ACO      H33      HGA3     0.900000E-01   1.00800           0
       531 CLST     54       ACO      O1       OG2D3   -0.480000       15.9994           0
       532 CLST     54       ACO      C1       CG2O5    0.400000       12.0110           0
       533 CLST     54       ACO      C2       CG331   -0.230000       12.0110           0
       534 CLST     54       ACO      C3       CG331   -0.230000       12.0110           0
       535 CLST     54       ACO      H21      HGA3     0.900000E-01   1.00800           0
       536 CLST     54       ACO      H22      HGA3     0.900000E-01   1.00800           0
       537 CLST     54       ACO      H23      HGA3     0.900000E-01   1.00800           0
       538 CLST     54       ACO      H31      HGA3     0.900000E-01   1.00800           0
       539 CLST     54       ACO      H32      HGA3     0.900000E-01   1.00800           0
       540 CLST     54       ACO      H33      HGA3     0.900000E-01   1.00800           0
       541 CLST     55       ACO      O1       OG2D3   -0.480000       15.9994           0
       542 CLST     55       ACO      C1       CG2O5    0.400000       12.0110           0
       543 CLST     55       ACO      C2       CG331   -0.230000       12.0110           0
       544 CLST     55       ACO      C3       CG331   -0.230000       12.0110           0
       545 CLST     55       ACO      H21      HGA3     0.900000E-01   1.00800           0
       546 CLST     55       ACO      H22      HGA3     0.900000E-01   1.00800           0
       547 CLST     55       ACO      H23      HGA3     0.900000E-01   1.00800           0
       548 CLST     55       ACO      H31      HGA3     0.900000E-01   1.00800           0
       549 CLST     55       ACO      H32      HGA3     0.900000E-01   1.00800           0
       550 CLST     55       ACO      H33      HGA3     0.900000E-01   1.00800           0
       551 CLST     56       ACO      O1       OG2D3   -0.480000       15.9994           0
       552 CLST     56       ACO      C1       CG2O5    0.400000       12.0110           0
       553 CLST     56       ACO      C2       CG331   -0.230000       12.0110           0
       554 CLST     56       ACO      C3       CG331   -0.230000       12.0110           0
       555 CLST     56       ACO      H21      HGA3     0.900000E-01   1.00800           0
       556 CLST     56       ACO      H22      HGA3     0.900000E-01   1.00800           0
       557 CLST     56       ACO      H23      HGA3     0.900000E-01   1.00800           0
       558 CLST     56       ACO      H31      HGA3     0.900000E-01   1.00800           0
       559 CLST     56       ACO      H32      HGA3     0.900000E-01   1.00800           0
       560 CLST     56       ACO      H33      HGA3     0.900000E-01   1.00800           0
       561 CLST     57       ACO      O1       OG2D3   -0.480000       15.9994           0
       562 CLST     57       ACO      C1       CG2O5    0.400000       12.0110           0
       563 CLST     57       ACO      C2       CG331   -0.230000       12.0110           0
       564 CLST     57       ACO      C3       CG331   -0.230000       12.0110           0
       565 CLST     57       ACO      H21      HGA3     0.900000E-01   1.00800           0
       566 CLST     57       ACO      H22      HGA3     0.900000E-01   1.00800           0
       567 CLST     57       ACO      H23      HGA3     0.900000E-01   1.00800           0
       568 CLST     57       ACO      H31      HGA3     0.900000E-01   1.00800           0
       569 CLST     57       ACO      H32      HGA3     0.900000E-01   1.00800           0
       570 CLST     57       ACO      H33      HGA3     0.900000E-01   1.00800           0
       571 CLST     58       ACO      O1       OG2D3   -0.480000       15.9994           0
       572 CLST     58       ACO      C1       CG2O5    0.400000       12.0110           0
       573 CLST     58       ACO      C2       CG331   -0.230000       12.0110           0
       574 CLST     58       ACO      C3       CG331   -0.230000       12.0110           0
       575 CLST     58       ACO      H21      HGA3     0.900000E-01   1.00800           0
       576 CLST     58       ACO      H22      HGA3     0.900000E-01   1.00800           0
       577 CLST     58       ACO      H23      HGA3     0.900000E-01   1.00800           0
       578 CLST     58       ACO      H31      HGA3     0.900000E-01   1.00800           0
       579 CLST     58       ACO      H32      HGA3     0.900000E-01   1.00800           0
       580 CLST     58       ACO      H33      HGA3     0.900000E-01   1.00800           0
       581 CLST     59       ACO      O1       OG2D3   -0.480000       15.9994           0
       582 CLST     59       ACO      C1       CG2O5    0.400000       12.0110           0
       583 CLST     59       ACO      C2       CG331   -0.230000       12.0110           0
       584 CLST     59       ACO      C3       CG331   -0.230000       12.0110           0
       585 CLST     59       ACO      H21      HGA3     0.900000E-01   1.00800           0
       586 CLST     59       ACO      H22      HGA3     0.900000E-01   1.00800           0
       587 CLST     59       ACO      H23      HGA3     0.900000E-01   1.00800           0
       588 CLST     59       ACO      H31      HGA3     0.900000E-01   1.00800           0
       589 CLST     59       ACO      H32      HGA3     0.900000E-01   1.00800           0
       590 CLST     59       ACO      H33      HGA3     0.900000E-01   1.00800           0
       591 CLST     60       ACO      O1       OG2D3   -0.480000       15.9994           0
       592 CLST     60       ACO      C1       CG2O5    0.400000       12.0110           0
       593 CLST     60       ACO      C2       CG331   -0.230000       12.0110           0
       594 CLST     60       ACO      C3       CG331   -0.230000       12.0110           0
       595 CLST     60       ACO      H21      HGA3     0.900000E-01   1.00800           0
       596 CLST     60       ACO      H22      HGA3     0.900000E-01   1.00800           0
       597 CLST     60       ACO      H23      HGA3     0.900000E-01   1.00800           0
       598 CLST     60       ACO      H31      HGA3     0.900000E-01   1.00800           0
       599 CLST     60       ACO      H32      HGA3     0.900000E-01   1.00800           0
       600 CLST     60       ACO      H33      HGA3     0.900000E-01   1.00800           0
       601 CLST     61       ACO      O1       OG2D3   -0.480000       15.9994           0
       602 CLST     61       ACO      C1       CG2O5    0.400000       12.0110           0
       603 CLST     61       ACO      C2       CG331   -0.230000       12.0110           0
       604 CLST     61       ACO      C3       CG331   -0.230000       12.0110           0
       605 CLST     61       ACO      H21      HGA3     0.900000E-01   1.00800           0
       606 CLST     61       ACO      H22      HGA3     0.900000E-01   1.00800           0
       607 CLST     61       ACO      H23      HGA3     0.900000E-01   1.00800           0
       608 CLST     61       ACO      H31      HGA3     0.900000E-01   1.00800           0
       609 CLST     61       ACO      H32      HGA3     0.900000E-01   1.00800           0
       610 CLST     61       ACO      H33      HGA3     0.900000E-01   1.00800           0
       611 CLST     62       ACO      O1       OG2D3   -0.480000       15.9994           0
       612 CLST     62       ACO      C1       CG2O5    0.400000       12.0110           0
       613 CLST     62       ACO      C2       CG331   -0.230000       12.0110           0
       614 CLST     62       ACO      C3       CG331   -0.230000       12.0110           0
       615 CLST     62       ACO      H21      HGA3     0.900000E-01   1.00800           0
       616 CLST     62       ACO      H22      HGA3     0.900000E-01   1.00800           0
       617 CLST     62       ACO      H23      HGA3     0.900000E-01   1.00800           0
       618 CLST     62       ACO      H31      HGA3     0.900000E-01   1.00800           0
       619 CLST     62       ACO      H32      HGA3     0.900000E-01   1.00800           0
       620 CLST     62       ACO      H33      HGA3     0.900000E-01   1.00800           0
       621 CLST     63       ACO      O1       OG2D3   -0.480000       15.9994           0
       622 CLST     63       ACO      C1       CG2O5    0.400000       12.0110           0
       623 CLST     63       ACO      C2       CG331   -0.230000       12.0110           0
       624 CLST     63       ACO      C3       CG331   -0.230000       12.0110           0
       625 CLST     63       ACO      H21      HGA3     0.900000E-01   1.00800           0
       626 CLST     63       ACO      H22      HGA3     0.900000E-01   1.00800           0
       627 CLST     63       ACO      H23      HGA3     0.900000E-01   1.00800           0
       628 CLST     63       ACO      H31      HGA3     0.900000E-01   1.00800           0
       629 CLST     63       ACO      H32      HGA3     0.900000E-01   1.00800           0
       630 CLST     63       ACO      H33      HGA3     0.900000E-01   1.00800           0
       631 CLST     64       ACO      O1       OG2D3   -0.480000       15.9994           0
       632 CLST     64       ACO      C1       CG2O5    0.400000       12.0110           0
       633 CLST     64       ACO      C2       CG331   -0.230000       12.0110           0
       634 CLST     64       ACO      C3       CG331   -0.230000       12.0110           0
       635 CLST     64       ACO      H21      HGA3     0.900000E-01   1.00800           0
       636 CLST     64       ACO      H22      HGA3     0.900000E-01   1.00800           0
       637 CLST     64       ACO      H23      HGA3     0.900000E-01   1.00800           0
       638 CLST     64       ACO      H31      HGA3     0.900000E-01   1.00800           0
       639 CLST     64       ACO      H32      HGA3     0.900000E-01   1.00800           0
       640 CLST     64       ACO      H33      HGA3     0.900000E-01   1.00800           0
       641 CLST     65       ACO      O1       OG2D3   -0.480000       15.9994           0
       642 CLST     65       ACO      C1       CG2O5    0.400000       12.0110           0
       643 CLST     65       ACO      C2       CG331   -0.230000       12.0110           0
       644 CLST     65       ACO      C3       CG331   -0.230000       12.0110           0
       645 CLST     65       ACO      H21      HGA3     0.900000E-01   1.00800           0
       646 CLST     65       ACO      H22      HGA3     0.900000E-01   1.00800           0
       647 CLST     65       ACO      H23      HGA3     0.900000E-01   1.00800           0
       648 CLST     65       ACO      H31      HGA3     0.900000E-01   1.00800           0
       649 CLST     65       ACO      H32      HGA3     0.900000E-01   1.00800           0
       650 CLST     65       ACO      H33      HGA3     0.900000E-01   1.00800           0
       651 CLST     66       ACO      O1       OG2D3   -0.480000       15.9994           0
       652 CLST     66       ACO      C1       CG2O5    0.400000       12.0110           0
       653 CLST     66       ACO      C2       CG331   -0.230000       12.0110           0
       654 CLST     66       ACO      C3       CG331   -0.230000       12.0110           0
       655 CLST     66       ACO      H21      HGA3     0.900000E-01   1.00800           0
       656 CLST     66       ACO      H22      HGA3     0.900000E-01   1.00800           0
       657 CLST     66       ACO      H23      HGA3     0.900000E-01   1.00800           0
       658 CLST     66       ACO      H31      HGA3     0.900000E-01   1.00800           0
       659 CLST     66       ACO      H32      HGA3     0.900000E-01   1.00800           0
       660 CLST     66       ACO      H33      HGA3     0.900000E-01   1.00800           0
       661 CLST     67       ACO      O1       OG2D3   -0.480000       15.9994           0
       662 CLST     67       ACO      C1       CG2O5    0.400000       12.0110           0
       663 CLST     67       ACO      C2       CG331   -0.230000       12.0110           0
       664 CLST     67       ACO      C3       CG331   -0.230000       12.0110           0
       665 CLST     67       ACO      H21      HGA3     0.900000E-01   1.00800           0
       666 CLST     67       ACO      H22      HGA3     0.900000E-01   1.00800           0
       667 CLST     67       ACO      H23      HGA3     0.900000E-01   1.00800           0
       668 CLST     67       ACO      H31      HGA3     0.900000E-01   1.00800           0
       669 CLST     67       ACO      H32      HGA3     0.900000E-01   1.00800           0
       670 CLST     67       ACO      H33      HGA3     0.900000E-01   1.00800           0
       671 CLST     68       ACO      O1       OG2D3   -0.480000       15.9994           0
       672 CLST     68       ACO      C1       CG2O5    0.400000       12.0110           0
       673 CLST     68       ACO      C2       CG331   -0.230000       12.0110           0
       674 CLST     68       ACO      C3       CG331   -0.230000       12.0110           0
       675 CLST     68       ACO      H21      HGA3     0.900000E-01   1.00800           0
       676 CLST     68       ACO      H22      HGA3     0.900000E-01   1.00800           0
       677 CLST     68       ACO      H23      HGA3     0.900000E-01   1.00800           0
       678 CLST     68       ACO      H31      HGA3     0.900000E-01   1.00800           0
       679 CLST     68       ACO      H32      HGA3     0.900000E-01   1.00800           0
       680 CLST     68       ACO      H33      HGA3     0.900000E-01   1.00800           0
       681 CLST     69       ACO      O1       OG2D3   -0.480000       15.9994           0
       682 CLST     69       ACO      C1       CG2O5    0.400000       12.0110           0
       683 CLST     69       ACO      C2       CG331   -0.230000       12.0110           0
       684 CLST     69       ACO      C3       CG331   -0.230000       12.0110           0
       685 CLST     69       ACO      H21      HGA3     0.900000E-01   1.00800           0
       686 CLST     69       ACO      H22      HGA3     0.900000E-01   1.00800           0
       687 CLST     69       ACO      H23      HGA3     0.900000E-01   1.00800           0
       688 CLST     69       ACO      H31      HGA3     0.900000E-01   1.00800           0
       689 CLST     69       ACO      H32      HGA3     0.900000E-01   1.00800           0
       690 CLST     69       ACO      H33      HGA3     0.900000E-01   1.00800           0
       691 CLST     70       ACO      O1       OG2D3   -0.480000       15.9994           0
       692 CLST     70       ACO      C1       CG2O5    0.400000       12.0110           0
       693 CLST     70       ACO      C2       CG331   -0.230000       12.0110           0
       694 CLST     70       ACO      C3       CG331   -0.230000       12.0110           0
       695 CLST     70       ACO      H21      HGA3     0.900000E-01   1.00800           0
       696 CLST     70       ACO      H22      HGA3     0.900000E-01   1.00800           0
       697 CLST     70       ACO      H23      HGA3     0.900000E-01   1.00800           0
       698 CLST     70       ACO      H31      HGA3     0.900000E-01   1.00800           0
       699 CLST     70       ACO      H32      HGA3     0.900000E-01   1.00800           0
       700 CLST     70       ACO      H33      HGA3     0.900000E-01   1.00800           0
       701 CLST     71       ACO      O1       OG2D3   -0.480000       15.9994           0
       702 CLST     71       ACO      C1       CG2O5    0.400000       12.0110           0
       703 CLST     71       ACO      C2       CG331   -0.230000       12.0110           0
       704 CLST     71       ACO      C3       CG331   -0.230000       12.0110           0
       705 CLST     71       ACO      H21      HGA3     0.900000E-01   1.00800           0
       706 CLST     71       ACO      H22      HGA3     0.900000E-01   1.00800           0
       707 CLST     71       ACO      H23      HGA3     0.900000E-01   1.00800           0
       708 CLST     71       ACO      H31      HGA3     0.900000E-01   1.00800           0
       709 CLST     71       ACO      H32      HGA3     0.900000E-01   1.00800           0
       710 CLST     71       ACO      H33      HGA3     0.900000E-01   1.00800           0
       711 CLST     72       ACO      O1       OG2D3   -0.480000       15.9994           0
       712 CLST     72       ACO      C1       CG2O5    0.400000       12.0110           0
       713 CLST     72       ACO      C2       CG331   -0.230000       12.0110           0
       714 CLST     72       ACO      C3       CG331   -0.230000       12.0110           0
       715 CLST     72       ACO      H21      HGA3     0.900000E-01   1.00800           0
       716 CLST     72       ACO      H22      HGA3     0.900000E-01   1.00800           0
       717 CLST     72       ACO      H23      HGA3     0.900000E-01   1.00800           0
       718 CLST     72       ACO      H31      HGA3     0.900000E-01   1.00800           0
       719 CLST     72       ACO      H32      HGA3     0.900000E-01   1.00800           0
       720 CLST     72       ACO      H33      HGA3     0.900000E-01   1.00800           0
       721 CLST     73       ACO      O1       OG2D3   -0.480000       15.9994           0
       722 CLST     73       ACO      C1       CG2O5    0.400000       12.0110           0
       723 CLST     73       ACO      C2       CG331   -0.230000       12.0110           0
       724 CLST     73       ACO      C3       CG331   -0.230000       12.0110           0
       725 CLST     73       ACO      H21      HGA3     0.900000E-01   1.00800           0
       726 CLST     73       ACO      H22      HGA3     0.900000E-01   1.00800           0
       727 CLST     73       ACO      H23      HGA3     0.900000E-01   1.00800           0
       728 CLST     73       ACO      H31      HGA3     0.900000E-01   1.00800           0
       729 CLST     73       ACO      H32      HGA3     0.900000E-01   1.00800           0
       730 CLST     73       ACO      H33      HGA3     0.900000E-01   1.00800           0
       731 CLST     74       ACO      O1       OG2D3   -0.480000       15.9994           0
       732 CLST     74       ACO      C1       CG2O5    0.400000       12.0110           0
       733 CLST     74       ACO      C2       CG331   -0.230000       12.0110           0
       734 CLST     74       ACO      C3       CG331   -0.230000       12.0110           0
       735 CLST     74       ACO      H21      HGA3     0.900000E-01   1.00800           0
       736 CLST     74       ACO      H22      HGA3     0.900000E-01   1.00800           0
       737 CLST     74       ACO      H23      HGA3     0.900000E-01   1.00800           0
       738 CLST     74       ACO      H31      HGA3     0.900000E-01   1.00800           0
       739 CLST     74       ACO      H32      HGA3     0.900000E-01   1.00800           0
       740 CLST     74       ACO      H33      HGA3     0.900000E-01   1.00800           0
       741 CLST     75       ACO      O1       OG2D3   -0.480000       15.9994           0
       742 CLST     75       ACO      C1       CG2O5    0.400000       12.0110           0
       743 CLST     75       ACO      C2       CG331   -0.230000       12.0110           0
       744 CLST     75       ACO      C3       CG331   -0.230000       12.0110           0
       745 CLST     75       ACO      H21      HGA3     0.900000E-01   1.00800           0
       746 CLST     75       ACO      H22      HGA3     0.900000E-01   1.00800           0
       747 CLST     75       ACO      H23      HGA3     0.900000E-01   1.00800           0
       748 CLST     75       ACO      H31      HGA3     0.900000E-01   1.00800           0
       749 CLST     75       ACO      H32      HGA3     0.900000E-01   1.00800           0
       750 CLST     75       ACO      H33      HGA3     0.900000E-01   1.00800           0
       751 CLST     76       ACO      O1       OG2D3   -0.480000       15.9994           0
       752 CLST     76       ACO      C1       CG2O5    0.400000       12.0110           0
       753 CLST     76       ACO      C2       CG331   -0.230000       12.0110           0
       754 CLST     76       ACO      C3       CG331   -0.230000       12.0110           0
       755 CLST     76       ACO      H21      HGA3     0.900000E-01   1.00800           0
       756 CLST     76       ACO      H22      HGA3     0.900000E-01   1.00800           0
       757 CLST     76       ACO      H23      HGA3     0.900000E-01   1.00800           0
       758 CLST     76       ACO      H31      HGA3     0.900000E-01   1.00800           0
       759 CLST     76       ACO      H32      HGA3     0.900000E-01   1.00800           0
       760 CLST     76       ACO      H33      HGA3     0.900000E-01   1.00800           0
       761 CLST     77       ACO      O1       OG2D3   -0.480000       15.9994           0
       762 CLST     77       ACO      C1       CG2O5    0.400000       12.0110           0
       763 CLST     77       ACO      C2       CG331   -0.230000       12.0110           0
       764 CLST     77       ACO      C3       CG331   -0.230000       12.0110           0
       765 CLST     77       ACO      H21      HGA3     0.900000E-01   1.00800           0
       766 CLST     77       ACO      H22      HGA3     0.900000E-01   1.00800           0
       767 CLST     77       ACO      H23      HGA3     0.900000E-01   1.00800           0
       768 CLST     77       ACO      H31      HGA3     0.900000E-01   1.00800           0
       769 CLST     77       ACO      H32      HGA3     0.900000E-01   1.00800           0
       770 CLST     77       ACO      H33      HGA3     0.900000E-01   1.00800           0
       771 CLST     78       ACO      O1       OG2D3   -0.480000       15.9994           0
       772 CLST     78       ACO      C1       CG2O5    0.400000       12.0110           0
       773 CLST     78       ACO      C2       CG331   -0.230000       12.0110           0
       774 CLST     78       ACO      C3       CG331   -0.230000       12.0110           0
       775 CLST     78       ACO      H21      HGA3     0.900000E-01   1.00800           0
       776 CLST     78       ACO      H22      HGA3     0.900000E-01   1.00800           0
       777 CLST     78       ACO      H23      HGA3     0.900000E-01   1.00800           0
       778 CLST     78       ACO      H31      HGA3     0.900000E-01   1.00800           0
       779 CLST     78       ACO      H32      HGA3     0.900000E-01   1.00800           0
       780 CLST     78       ACO      H33      HGA3     0.900000E-01   1.00800           0
       781 CLST     79       ACO      O1       OG2D3   -0.480000       15.9994           0
       782 CLST     79       ACO      C1       CG2O5    0.400000       12.0110           0
       783 CLST     79       ACO      C2       CG331   -0.230000       12.0110           0
       784 CLST     79       ACO      C3       CG331   -0.230000       12.0110           0
       785 CLST     79       ACO      H21      HGA3     0.900000E-01   1.00800           0
       786 CLST     79       ACO      H22      HGA3     0.900000E-01   1.00800           0
       787 CLST     79       ACO      H23      HGA3     0.900000E-01   1.00800           0
       788 CLST     79       ACO      H31      HGA3     0.900000E-01   1.00800           0
       789 CLST     79       ACO      H32      HGA3     0.900000E-01   1.00800           0
       790 CLST     79       ACO      H33      HGA3     0.900000E-01   1.00800           0
       791 CLST     80       ACO      O1       OG2D3   -0.480000       15.9994           0
       792 CLST     80       ACO      C1       CG2O5    0.400000       12.0110           0
       793 CLST     80       ACO      C2       CG331   -0.230000       12.0110           0
       794 CLST     80       ACO      C3       CG331   -0.230000       12.0110           0
       795 CLST     80       ACO      H21      HGA3     0.900000E-01   1.00800           0
       796 CLST     80       ACO      H22      HGA3     0.900000E-01   1.00800           0
       797 CLST     80       ACO      H23      HGA3     0.900000E-01   1.00800           0
       798 CLST     80       ACO      H31      HGA3     0.900000E-01   1.00800           0
       799 CLST     80       ACO      H32      HGA3     0.900000E-01   1.00800           0
       800 CLST     80       ACO      H33      HGA3     0.900000E-01   1.00800           0
       801 CLST     81       ACO      O1       OG2D3   -0.480000       15.9994           0
       802 CLST     81       ACO      C1       CG2O5    0.400000       12.0110           0
       803 CLST     81       ACO      C2       CG331   -0.230000       12.0110           0
       804 CLST     81       ACO      C3       CG331   -0.230000       12.0110           0
       805 CLST     81       ACO      H21      HGA3     0.900000E-01   1.00800           0
       806 CLST     81       ACO      H22      HGA3     0.900000E-01   1.00800           0
       807 CLST     81       ACO      H23      HGA3     0.900000E-01   1.00800           0
       808 CLST     81       ACO      H31      HGA3     0.900000E-01   1.00800           0
       809 CLST     81       ACO      H32      HGA3     0.900000E-01   1.00800           0
       810 CLST     81       ACO      H33      HGA3     0.900000E-01   1.00800           0
       811 CLST     82       ACO      O1       OG2D3   -0.480000       15.9994           0
       812 CLST     82       ACO      C1       CG2O5    0.400000       12.0110           0
       813 CLST     82       ACO      C2       CG331   -0.230000       12.0110           0
       814 CLST     82       ACO      C3       CG331   -0.230000       12.0110           0
       815 CLST     82       ACO      H21      HGA3     0.900000E-01   1.00800           0
       816 CLST     82       ACO      H22      HGA3     0.900000E-01   1.00800           0
       817 CLST     82       ACO      H23      HGA3     0.900000E-01   1.00800           0
       818 CLST     82       ACO      H31      HGA3     0.900000E-01   1.00800           0
       819 CLST     82       ACO      H32      HGA3     0.900000E-01   1.00800           0
       820 CLST     82       ACO      H33      HGA3     0.900000E-01   1.00800           0
       821 CLST     83       ACO      O1       OG2D3   -0.480000       15.9994           0
       822 CLST     83       ACO      C1       CG2O5    0.400000       12.0110           0
       823 CLST     83       ACO      C2       CG331   -0.230000       12.0110           0
       824 CLST     83       ACO      C3       CG331   -0.230000       12.0110           0
       825 CLST     83       ACO      H21      HGA3     0.900000E-01   1.00800           0
       826 CLST     83       ACO      H22      HGA3     0.900000E-01   1.00800           0
       827 CLST     83       ACO      H23      HGA3     0.900000E-01   1.00800           0
       828 CLST     83       ACO      H31      HGA3     0.900000E-01   1.00800           0
       829 CLST     83       ACO      H32      HGA3     0.900000E-01   1.00800           0
       830 CLST     83       ACO      H33      HGA3     0.900000E-01   1.00800           0
       831 CLST     84       ACO      O1       OG2D3   -0.480000       15.9994           0
       832 CLST     84       ACO      C1       CG2O5    0.400000       12.0110           0
       833 CLST     84       ACO      C2       CG331   -0.230000       12.0110           0
       834 CLST     84       ACO      C3       CG331   -0.230000       12.0110           0
       835 CLST     84       ACO      H21      HGA3     0.900000E-01   1.00800           0
       836 CLST     84       ACO      H22      HGA3     0.900000E-01   1.00800           0
       837 CLST     84       ACO      H23      HGA3     0.900000E-01   1.00800           0
       838 CLST     84       ACO      H31      HGA3     0.900000E-01   1.00800           0
       839 CLST     84       ACO      H32      HGA3     0.900000E-01   1.00800           0
       840 CLST     84       ACO      H33      HGA3     0.900000E-01   1.00800           0
       841 CLST     85       ACO      O1       OG2D3   -0.480000       15.9994           0
       842 CLST     85       ACO      C1       CG2O5    0.400000       12.0110           0
       843 CLST     85       ACO      C2       CG331   -0.230000       12.0110           0
       844 CLST     85       ACO      C3       CG331   -0.230000       12.0110           0
       845 CLST     85       ACO      H21      HGA3     0.900000E-01   1.00800           0
       846 CLST     85       ACO      H22      HGA3     0.900000E-01   1.00800           0
       847 CLST     85       ACO      H23      HGA3     0.900000E-01   1.00800           0
       848 CLST     85       ACO      H31      HGA3     0.900000E-01   1.00800           0
       849 CLST     85       ACO      H32      HGA3     0.900000E-01   1.00800           0
       850 CLST     85       ACO      H33      HGA3     0.900000E-01   1.00800           0
       851 CLST     86       ACO      O1       OG2D3   -0.480000       15.9994           0
       852 CLST     86       ACO      C1       CG2O5    0.400000       12.0110           0
       853 CLST     86       ACO      C2       CG331   -0.230000       12.0110           0
       854 CLST     86       ACO      C3       CG331   -0.230000       12.0110           0
       855 CLST     86       ACO      H21      HGA3     0.900000E-01   1.00800           0
       856 CLST     86       ACO      H22      HGA3     0.900000E-01   1.00800           0
       857 CLST     86       ACO      H23      HGA3     0.900000E-01   1.00800           0
       858 CLST     86       ACO      H31      HGA3     0.900000E-01   1.00800           0
       859 CLST     86       ACO      H32      HGA3     0.900000E-01   1.00800           0
       860 CLST     86       ACO      H33      HGA3     0.900000E-01   1.00800           0
       861 CLST     87       ACO      O1       OG2D3   -0.480000       15.9994           0
       862 CLST     87       ACO      C1       CG2O5    0.400000       12.0110           0
       863 CLST     87       ACO      C2       CG331   -0.230000       12.0110           0
       864 CLST     87       ACO      C3       CG331   -0.230000       12.0110           0
       865 CLST     87       ACO      H21      HGA3     0.900000E-01   1.00800           0
       866 CLST     87       ACO      H22      HGA3     0.900000E-01   1.00800           0
       867 CLST     87       ACO      H23      HGA3     0.900000E-01   1.00800           0
       868 CLST     87       ACO      H31      HGA3     0.900000E-01   1.00800           0
       869 CLST     87       ACO      H32      HGA3     0.900000E-01   1.00800           0
       870 CLST     87       ACO      H33      HGA3     0.900000E-01   1.00800           0
       871 CLST     88       ACO      O1       OG2D3   -0.480000       15.9994           0
       872 CLST     88       ACO      C1       CG2O5    0.400000       12.0110           0
       873 CLST     88       ACO      C2       CG331   -0.230000       12.0110           0
       874 CLST     88       ACO      C3       CG331   -0.230000       12.0110           0
       875 CLST     88       ACO      H21      HGA3     0.900000E-01   1.00800           0
       876 CLST     88       ACO      H22      HGA3     0.900000E-01   1.00800           0
       877 CLST     88       ACO      H23      HGA3     0.900000E-01   1.00800           0
       878 CLST     88       ACO      H31      HGA3     0.900000E-01   1.00800           0
       879 CLST     88       ACO      H32      HGA3     0.900000E-01   1.00800           0
       880 CLST     88       ACO      H33      HGA3     0.900000E-01   1.00800           0
       881 CLST     89       ACO      O1       OG2D3   -0.480000       15.9994           0
       882 CLST     89       ACO      C1       CG2O5    0.400000       12.0110           0
       883 CLST     89       ACO      C2       CG331   -0.230000       12.0110           0
       884 CLST     89       ACO      C3       CG331   -0.230000       12.0110           0
       885 CLST     89       ACO      H21      HGA3     0.900000E-01   1.00800           0
       886 CLST     89       ACO      H22      HGA3     0.900000E-01   1.00800           0
       887 CLST     89       ACO      H23      HGA3     0.900000E-01   1.00800           0
       888 CLST     89       ACO      H31      HGA3     0.900000E-01   1.00800           0
       889 CLST     89       ACO      H32      HGA3     0.900000E-01   1.00800           0
       890 CLST     89       ACO      H33      HGA3     0.900000E-01   1.00800           0
       891 CLST     90       ACO      O1       OG2D3   -0.480000       15.9994           0
       892 CLST     90       ACO      C1       CG2O5    0.400000       12.0110           0
       893 CLST     90       ACO      C2       CG331   -0.230000       12.0110           0
       894 CLST     90       ACO      C3       CG331   -0.230000       12.0110           0
       895 CLST     90       ACO      H21      HGA3     0.900000E-01   1.00800           0
       896 CLST     90       ACO      H22      HGA3     0.900000E-01   1.00800           0
       897 CLST     90       ACO      H23      HGA3     0.900000E-01   1.00800           0
       898 CLST     90       ACO      H31      HGA3     0.900000E-01   1.00800           0
       899 CLST     90       ACO      H32      HGA3     0.900000E-01   1.00800           0
       900 CLST     90       ACO      H33      HGA3     0.900000E-01   1.00800           0
       901 CLST     91       ACO      O1       OG2D3   -0.480000       15.9994           0
       902 CLST     91       ACO      C1       CG2O5    0.400000       12.0110           0
       903 CLST     91       ACO      C2       CG331   -0.230000       12.0110           0
       904 CLST     91       ACO      C3       CG331   -0.230000       12.0110           0
       905 CLST     91       ACO      H21      HGA3     0.900000E-01   1.00800           0
       906 CLST     91       ACO      H22      HGA3     0.900000E-01   1.00800           0
       907 CLST     91       ACO      H23      HGA3     0.900000E-01   1.00800           0
       908 CLST     91       ACO      H31      HGA3     0.900000E-01   1.00800           0
       909 CLST     91       ACO      H32      HGA3     0.900000E-01   1.00800           0
       910 CLST     91       ACO      H33      HGA3     0.900000E-01   1.00800           0
       911 CLST     92       ACO      O1       OG2D3   -0.480000       15.9994           0
       912 CLST     92       ACO      C1       CG2O5    0.400000       12.0110           0
       913 CLST     92       ACO      C2       CG331   -0.230000       12.0110           0
       914 CLST     92       ACO      C3       CG331   -0.230000       12.0110           0
       915 CLST     92       ACO      H21      HGA3     0.900000E-01   1.00800           0
       916 CLST     92       ACO      H22      HGA3     0.900000E-01   1.00800           0
       917 CLST     92       ACO      H23      HGA3     0.900000E-01   1.00800           0
       918 CLST     92       ACO      H31      HGA3     0.900000E-01   1.00800           0
       919 CLST     92       ACO      H32      HGA3     0.900000E-01   1.00800           0
       920 CLST     92       ACO      H33      HGA3     0.900000E-01   1.00800           0
       921 CLST     93       ACO      O1       OG2D3   -0.480000       15.9994           0
       922 CLST     93       ACO      C1       CG2O5    0.400000       12.0110           0
       923 CLST     93       ACO      C2       CG331   -0.230000       12.0110           0
       924 CLST     93       ACO      C3       CG331   -0.230000       12.0110           0
       925 CLST     93       ACO      H21      HGA3     0.900000E-01   1.00800           0
       926 CLST     93       ACO      H22      HGA3     0.900000E-01   1.00800           0
       927 CLST     93       ACO      H23      HGA3     0.900000E-01   1.00800           0
       928 CLST     93       ACO      H31      HGA3     0.900000E-01   1.00800           0
       929 CLST     93       ACO      H32      HGA3     0.900000E-01   1.00800           0
       930 CLST     93       ACO      H33      HGA3     0.900000E-01   1.00800           0
       931 CLST     94       ACO      O1       OG2D3   -0.480000       15.9994           0
       932 CLST     94       ACO      C1       CG2O5    0.400000       12.0110           0
       933 CLST     94       ACO      C2       CG331   -0.230000       12.0110           0
       934 CLST     94       ACO      C3       CG331   -0.230000       12.0110           0
       935 CLST     94       ACO      H21      HGA3     0.900000E-01   1.00800           0
       936 CLST     94       ACO      H22      HGA3     0.900000E-01   1.00800           0
       937 CLST     94       ACO      H23      HGA3     0.900000E-01   1.00800           0
       938 CLST     94       ACO      H31      HGA3     0.900000E-01   1.00800           0
       939 CLST     94       ACO      H32      HGA3     0.900000E-01   1.00800           0
       940 CLST     94       ACO      H33      HGA3     0.900000E-01   1.00800           0
       941 CLST     95       ACO      O1       OG2D3   -0.480000       15.9994           0
       942 CLST     95       ACO      C1       CG2O5    0.400000       12.0110           0
       943 CLST     95       ACO      C2       CG331   -0.230000       12.0110           0
       944 CLST     95       ACO      C3       CG331   -0.230000       12.0110           0
       945 CLST     95       ACO      H21      HGA3     0.900000E-01   1.00800           0
       946 CLST     95       ACO      H22      HGA3     0.900000E-01   1.00800           0
       947 CLST     95       ACO      H23      HGA3     0.900000E-01   1.00800           0
       948 CLST     95       ACO      H31      HGA3     0.900000E-01   1.00800           0
       949 CLST     95       ACO      H32      HGA3     0.900000E-01   1.00800           0
       950 CLST     95       ACO      H33      HGA3     0.900000E-01   1.00800           0
       951 CLST     96       ACO      O1       OG2D3   -0.480000       15.9994           0
       952 CLST     96       ACO      C1       CG2O5    0.400000       12.0110           0
       953 CLST     96       ACO      C2       CG331   -0.230000       12.0110           0
       954 CLST     96       ACO      C3       CG331   -0.230000       12.0110           0
       955 CLST     96       ACO      H21      HGA3     0.900000E-01   1.00800           0
       956 CLST     96       ACO      H22      HGA3     0.900000E-01   1.00800           0
       957 CLST     96       ACO      H23      HGA3     0.900000E-01   1.00800           0
       958 CLST     96       ACO      H31      HGA3     0.900000E-01   1.00800           0
       959 CLST     96       ACO      H32      HGA3     0.900000E-01   1.00800           0
       960 CLST     96       ACO      H33      HGA3     0.900000E-01   1.00800           0
       961 CLST     97       ACO      O1       OG2D3   -0.480000       15.9994           0
       962 CLST     97       ACO      C1       CG2O5    0.400000       12.0110           0
       963 CLST     97       ACO      C2       CG331   -0.230000       12.0110           0
       964 CLST     97       ACO      C3       CG331   -0.230000       12.0110           0
       965 CLST     97       ACO      H21      HGA3     0.900000E-01   1.00800           0
       966 CLST     97       ACO      H22      HGA3     0.900000E-01   1.00800           0
       967 CLST     97       ACO      H23      HGA3     0.900000E-01   1.00800           0
       968 CLST     97       ACO      H31      HGA3     0.900000E-01   1.00800           0
       969 CLST     97       ACO      H32      HGA3     0.900000E-01   1.00800           0
       970 CLST     97       ACO      H33      HGA3     0.900000E-01   1.00800           0
       971 CLST     98       ACO      O1       OG2D3   -0.480000       15.9994           0
       972 CLST     98       ACO      C1       CG2O5    0.400000       12.0110           0
       973 CLST     98       ACO      C2       CG331   -0.230000       12.0110           0
       974 CLST     98       ACO      C3       CG331   -0.230000       12.0110           0
       975 CLST     98       ACO      H21      HGA3     0.900000E-01   1.00800           0
       976 CLST     98       ACO      H22      HGA3     0.900000E-01   1.00800           0
       977 CLST     98       ACO      H23      HGA3     0.900000E-01   1.00800           0
       978 CLST     98       ACO      H31      HGA3     0.900000E-01   1.00800           0
       979 CLST     98       ACO      H32      HGA3     0.900000E-01   1.00800           0
       980 CLST     98       ACO      H33      HGA3     0.900000E-01   1.00800           0
       981 CLST     99       ACO      O1       OG2D3   -0.480000       15.9994           0
       982 CLST     99       ACO      C1       CG2O5    0.400000       12.0110           0
       983 CLST     99       ACO      C2       CG331   -0.230000       12.0110           0
       984 CLST     99       ACO      C3       CG331   -0.230000       12.0110           0
       985 CLST     99       ACO      H21      HGA3     0.900000E-01   1.00800           0
       986 CLST     99       ACO      H22      HGA3     0.900000E-01   1.00800           0
       987 CLST     99       ACO      H23      HGA3     0.900000E-01   1.00800           0
       988 CLST     99       ACO      H31      HGA3     0.900000E-01   1.00800           0
       989 CLST     99       ACO      H32      HGA3     0.900000E-01   1.00800           0
       990 CLST     99       ACO      H33      HGA3     0.900000E-01   1.00800           0
       991 CLST     100      ACO      O1       OG2D3   -0.480000       15.9994           0
       992 CLST     100      ACO      C1       CG2O5    0.400000       12.0110           0
       993 CLST     100      ACO      C2       CG331   -0.230000       12.0110           0
       994 CLST     100      ACO      C3       CG331   -0.230000       12.0110           0
       995 CLST     100      ACO      H21      HGA3     0.900000E-01   1.00800           0
       996 CLST     100      ACO      H22      HGA3     0.900000E-01   1.00800           0
       997 CLST     100      ACO      H23      HGA3     0.900000E-01   1.00800           0
       998 CLST     100      ACO      H31      HGA3     0.900000E-01   1.00800           0
       999 CLST     100      ACO      H32      HGA3     0.900000E-01   1.00800           0
      1000 CLST     100      ACO      H33      HGA3     0.900000E-01   1.00800           0
      1001 CLST     101      ACO      O1       OG2D3   -0.480000       15.9994           0
      1002 CLST     101      ACO      C1       CG2O5    0.400000       12.0110           0
      1003 CLST     101      ACO      C2       CG331   -0.230000       12.0110           0
      1004 CLST     101      ACO      C3       CG331   -0.230000       12.0110           0
      1005 CLST     101      ACO      H21      HGA3     0.900000E-01   1.00800           0
      1006 CLST     101      ACO      H22      HGA3     0.900000E-01   1.00800           0
      1007 CLST     101      ACO      H23      HGA3     0.900000E-01   1.00800           0
      1008 CLST     101      ACO      H31      HGA3     0.900000E-01   1.00800           0
      1009 CLST     101      ACO      H32      HGA3     0.900000E-01   1.00800           0
      1010 CLST     101      ACO      H33      HGA3     0.900000E-01   1.00800           0
      1011 CLST     102      ACO      O1       OG2D3   -0.480000       15.9994           0
      1012 CLST     102      ACO      C1       CG2O5    0.400000       12.0110           0
      1013 CLST     102      ACO      C2       CG331   -0.230000       12.0110           0
      1014 CLST     102      ACO      C3       CG331   -0.230000       12.0110           0
      1015 CLST     102      ACO      H21      HGA3     0.900000E-01   1.00800           0
      1016 CLST     102      ACO      H22      HGA3     0.900000E-01   1.00800           0
      1017 CLST     102      ACO      H23      HGA3     0.900000E-01   1.00800           0
      1018 CLST     102      ACO      H31      HGA3     0.900000E-01   1.00800           0
      1019 CLST     102      ACO      H32      HGA3     0.900000E-01   1.00800           0
      1020 CLST     102      ACO      H33      HGA3     0.900000E-01   1.00800           0
      1021 CLST     103      ACO      O1       OG2D3   -0.480000       15.9994           0
      1022 CLST     103      ACO      C1       CG2O5    0.400000       12.0110           0
      1023 CLST     103      ACO      C2       CG331   -0.230000       12.0110           0
      1024 CLST     103      ACO      C3       CG331   -0.230000       12.0110           0
      1025 CLST     103      ACO      H21      HGA3     0.900000E-01   1.00800           0
      1026 CLST     103      ACO      H22      HGA3     0.900000E-01   1.00800           0
      1027 CLST     103      ACO      H23      HGA3     0.900000E-01   1.00800           0
      1028 CLST     103      ACO      H31      HGA3     0.900000E-01   1.00800           0
      1029 CLST     103      ACO      H32      HGA3     0.900000E-01   1.00800           0
      1030 CLST     103      ACO      H33      HGA3     0.900000E-01   1.00800           0
      1031 CLST     104      ACO      O1       OG2D3   -0.480000       15.9994           0
      1032 CLST     104      ACO      C1       CG2O5    0.400000       12.0110           0
      1033 CLST     104      ACO      C2       CG331   -0.230000       12.0110           0
      1034 CLST     104      ACO      C3       CG331   -0.230000       12.0110           0
      1035 CLST     104      ACO      H21      HGA3     0.900000E-01   1.00800           0
      1036 CLST     104      ACO      H22      HGA3     0.900000E-01   1.00800           0
      1037 CLST     104      ACO      H23      HGA3     0.900000E-01   1.00800           0
      1038 CLST     104      ACO      H31      HGA3     0.900000E-01   1.00800           0
      1039 CLST     104      ACO      H32      HGA3     0.900000E-01   1.00800           0
      1040 CLST     104      ACO      H33      HGA3     0.900000E-01   1.00800           0
      1041 CLST     105      ACO      O1       OG2D3   -0.480000       15.9994           0
      1042 CLST     105      ACO      C1       CG2O5    0.400000       12.0110           0
      1043 CLST     105      ACO      C2       CG331   -0.230000       12.0110           0
      1044 CLST     105      ACO      C3       CG331   -0.230000       12.0110           0
      1045 CLST     105      ACO      H21      HGA3     0.900000E-01   1.00800           0
      1046 CLST     105      ACO      H22      HGA3     0.900000E-01   1.00800           0
      1047 CLST     105      ACO      H23      HGA3     0.900000E-01   1.00800           0
      1048 CLST     105      ACO      H31      HGA3     0.900000E-01   1.00800           0
      1049 CLST     105      ACO      H32      HGA3     0.900000E-01   1.00800           0
      1050 CLST     105      ACO      H33      HGA3     0.900000E-01   1.00800           0
      1051 CLST     106      ACO      O1       OG2D3   -0.480000       15.9994           0
      1052 CLST     106      ACO      C1       CG2O5    0.400000       12.0110           0
      1053 CLST     106      ACO      C2       CG331   -0.230000       12.0110           0
      1054 CLST     106      ACO      C3       CG331   -0.230000       12.0110           0
      1055 CLST     106      ACO      H21      HGA3     0.900000E-01   1.00800           0
      1056 CLST     106      ACO      H22      HGA3     0.900000E-01   1.00800           0
      1057 CLST     106      ACO      H23      HGA3     0.900000E-01   1.00800           0
      1058 CLST     106      ACO      H31      HGA3     0.900000E-01   1.00800           0
      1059 CLST     106      ACO      H32      HGA3     0.900000E-01   1.00800           0
      1060 CLST     106      ACO      H33      HGA3     0.900000E-01   1.00800           0
      1061 CLST     107      ACO      O1       OG2D3   -0.480000       15.9994           0
      1062 CLST     107      ACO      C1       CG2O5    0.400000       12.0110           0
      1063 CLST     107      ACO      C2       CG331   -0.230000       12.0110           0
      1064 CLST     107      ACO      C3       CG331   -0.230000       12.0110           0
      1065 CLST     107      ACO      H21      HGA3     0.900000E-01   1.00800           0
      1066 CLST     107      ACO      H22      HGA3     0.900000E-01   1.00800           0
      1067 CLST     107      ACO      H23      HGA3     0.900000E-01   1.00800           0
      1068 CLST     107      ACO      H31      HGA3     0.900000E-01   1.00800           0
      1069 CLST     107      ACO      H32      HGA3     0.900000E-01   1.00800           0
      1070 CLST     107      ACO      H33      HGA3     0.900000E-01   1.00800           0
      1071 CLST     108      ACO      O1       OG2D3   -0.480000       15.9994           0
      1072 CLST     108      ACO      C1       CG2O5    0.400000       12.0110           0
      1073 CLST     108      ACO      C2       CG331   -0.230000       12.0110           0
      1074 CLST     108      ACO      C3       CG331   -0.230000       12.0110           0
      1075 CLST     108      ACO      H21      HGA3     0.900000E-01   1.00800           0
      1076 CLST     108      ACO      H22      HGA3     0.900000E-01   1.00800           0
      1077 CLST     108      ACO      H23      HGA3     0.900000E-01   1.00800           0
      1078 CLST     108      ACO      H31      HGA3     0.900000E-01   1.00800           0
      1079 CLST     108      ACO      H32      HGA3     0.900000E-01   1.00800           0
      1080 CLST     108      ACO      H33      HGA3     0.900000E-01   1.00800           0
      1081 CLST     109      ACO      O1       OG2D3   -0.480000       15.9994           0
      1082 CLST     109      ACO      C1       CG2O5    0.400000       12.0110           0
      1083 CLST     109      ACO      C2       CG331   -0.230000       12.0110           0
      1084 CLST     109      ACO      C3       CG331   -0.230000       12.0110           0
      1085 CLST     109      ACO      H21      HGA3     0.900000E-01   1.00800           0
      1086 CLST     109      ACO      H22      HGA3     0.900000E-01   1.00800           0
      1087 CLST     109      ACO      H23      HGA3     0.900000E-01   1.00800           0
      1088 CLST     109      ACO      H31      HGA3     0.900000E-01   1.00800           0
      1089 CLST     109      ACO      H32      HGA3     0.900000E-01   1.00800           0
      1090 CLST     109      ACO      H33      HGA3     0.900000E-01   1.00800           0
      1091 CLST     110      ACO      O1       OG2D3   -0.480000       15.9994           0
      1092 CLST     110      ACO      C1       CG2O5    0.400000       12.0110           0
      1093 CLST     110      ACO      C2       CG331   -0.230000       12.0110           0
      1094 CLST     110      ACO      C3       CG331   -0.230000       12.0110           0
      1095 CLST     110      ACO      H21      HGA3     0.900000E-01   1.00800           0
      1096 CLST     110      ACO      H22      HGA3     0.900000E-01   1.00800           0
      1097 CLST     110      ACO      H23      HGA3     0.900000E-01   1.00800           0
      1098 CLST     110      ACO      H31      HGA3     0.900000E-01   1.00800           0
      1099 CLST     110      ACO      H32      HGA3     0.900000E-01   1.00800           0
      1100 CLST     110      ACO      H33      HGA3     0.900000E-01   1.00800           0
      1101 CLST     111      ACO      O1       OG2D3   -0.480000       15.9994           0
      1102 CLST     111      ACO      C1       CG2O5    0.400000       12.0110           0
      1103 CLST     111      ACO      C2       CG331   -0.230000       12.0110           0
      1104 CLST     111      ACO      C3       CG331   -0.230000       12.0110           0
      1105 CLST     111      ACO      H21      HGA3     0.900000E-01   1.00800           0
      1106 CLST     111      ACO      H22      HGA3     0.900000E-01   1.00800           0
      1107 CLST     111      ACO      H23      HGA3     0.900000E-01   1.00800           0
      1108 CLST     111      ACO      H31      HGA3     0.900000E-01   1.00800           0
      1109 CLST     111      ACO      H32      HGA3     0.900000E-01   1.00800           0
      1110 CLST     111      ACO      H33      HGA3     0.900000E-01   1.00800           0
      1111 CLST     112      ACO      O1       OG2D3   -0.480000       15.9994           0
      1112 CLST     112      ACO      C1       CG2O5    0.400000       12.0110           0
      1113 CLST     112      ACO      C2       CG331   -0.230000       12.0110           0
      1114 CLST     112      ACO      C3       CG331   -0.230000       12.0110           0
      1115 CLST     112      ACO      H21      HGA3     0.900000E-01   1.00800           0
      1116 CLST     112      ACO      H22      HGA3     0.900000E-01   1.00800           0
      1117 CLST     112      ACO      H23      HGA3     0.900000E-01   1.00800           0
      1118 CLST     112      ACO      H31      HGA3     0.900000E-01   1.00800           0
      1119 CLST     112      ACO      H32      HGA3     0.900000E-01   1.00800           0
      1120 CLST     112      ACO      H33      HGA3     0.900000E-01   1.00800           0
      1121 CLST     113      ACO      O1       OG2D3   -0.480000       15.9994           0
      1122 CLST     113      ACO      C1       CG2O5    0.400000       12.0110           0
      1123 CLST     113      ACO      C2       CG331   -0.230000       12.0110           0
      1124 CLST     113      ACO      C3       CG331   -0.230000       12.0110           0
      1125 CLST     113      ACO      H21      HGA3     0.900000E-01   1.00800           0
      1126 CLST     113      ACO      H22      HGA3     0.900000E-01   1.00800           0
      1127 CLST     113      ACO      H23      HGA3     0.900000E-01   1.00800           0
      1128 CLST     113      ACO      H31      HGA3     0.900000E-01   1.00800           0
      1129 CLST     113      ACO      H32      HGA3     0.900000E-01   1.00800           0
      1130 CLST     113      ACO      H33      HGA3     0.900000E-01   1.00800           0
      1131 CLST     114      ACO      O1       OG2D3   -0.480000       15.9994           0
      1132 CLST     114      ACO      C1       CG2O5    0.400000       12.0110           0
      1133 CLST     114      ACO      C2       CG331   -0.230000       12.0110           0
      1134 CLST     114      ACO      C3       CG331   -0.230000       12.0110           0
      1135 CLST     114      ACO      H21      HGA3     0.900000E-01   1.00800           0
      1136 CLST     114      ACO      H22      HGA3     0.900000E-01   1.00800           0
      1137 CLST     114      ACO      H23      HGA3     0.900000E-01   1.00800           0
      1138 CLST     114      ACO      H31      HGA3     0.900000E-01   1.00800           0
      1139 CLST     114      ACO      H32      HGA3     0.900000E-01   1.00800           0
      1140 CLST     114      ACO      H33      HGA3     0.900000E-01   1.00800           0
      1141 CLST     115      ACO      O1       OG2D3   -0.480000       15.9994           0
      1142 CLST     115      ACO      C1       CG2O5    0.400000       12.0110           0
      1143 CLST     115      ACO      C2       CG331   -0.230000       12.0110           0
      1144 CLST     115      ACO      C3       CG331   -0.230000       12.0110           0
      1145 CLST     115      ACO      H21      HGA3     0.900000E-01   1.00800           0
      1146 CLST     115      ACO      H22      HGA3     0.900000E-01   1.00800           0
      1147 CLST     115      ACO      H23      HGA3     0.900000E-01   1.00800           0
      1148 CLST     115      ACO      H31      HGA3     0.900000E-01   1.00800           0
      1149 CLST     115      ACO      H32      HGA3     0.900000E-01   1.00800           0
      1150 CLST     115      ACO      H33      HGA3     0.900000E-01   1.00800           0
      1151 CLST     116      ACO      O1       OG2D3   -0.480000       15.9994           0
      1152 CLST     116      ACO      C1       CG2O5    0.400000       12.0110           0
      1153 CLST     116      ACO      C2       CG331   -0.230000       12.0110           0
      1154 CLST     116      ACO      C3       CG331   -0.230000       12.0110           0
      1155 CLST     116      ACO      H21      HGA3     0.900000E-01   1.00800           0
      1156 CLST     116      ACO      H22      HGA3     0.900000E-01   1.00800           0
      1157 CLST     116      ACO      H23      HGA3     0.900000E-01   1.00800           0
      1158 CLST     116      ACO      H31      HGA3     0.900000E-01   1.00800           0
      1159 CLST     116      ACO      H32      HGA3     0.900000E-01   1.00800           0
      1160 CLST     116      ACO      H33      HGA3     0.900000E-01   1.00800           0
      1161 CLST     117      ACO      O1       OG2D3   -0.480000       15.9994           0
      1162 CLST     117      ACO      C1       CG2O5    0.400000       12.0110           0
      1163 CLST     117      ACO      C2       CG331   -0.230000       12.0110           0
      1164 CLST     117      ACO      C3       CG331   -0.230000       12.0110           0
      1165 CLST     117      ACO      H21      HGA3     0.900000E-01   1.00800           0
      1166 CLST     117      ACO      H22      HGA3     0.900000E-01   1.00800           0
      1167 CLST     117      ACO      H23      HGA3     0.900000E-01   1.00800           0
      1168 CLST     117      ACO      H31      HGA3     0.900000E-01   1.00800           0
      1169 CLST     117      ACO      H32      HGA3     0.900000E-01   1.00800           0
      1170 CLST     117      ACO      H33      HGA3     0.900000E-01   1.00800           0
      1171 CLST     118      ACO      O1       OG2D3   -0.480000       15.9994           0
      1172 CLST     118      ACO      C1       CG2O5    0.400000       12.0110           0
      1173 CLST     118      ACO      C2       CG331   -0.230000       12.0110           0
      1174 CLST     118      ACO      C3       CG331   -0.230000       12.0110           0
      1175 CLST     118      ACO      H21      HGA3     0.900000E-01   1.00800           0
      1176 CLST     118      ACO      H22      HGA3     0.900000E-01   1.00800           0
      1177 CLST     118      ACO      H23      HGA3     0.900000E-01   1.00800           0
      1178 CLST     118      ACO      H31      HGA3     0.900000E-01   1.00800           0
      1179 CLST     118      ACO      H32      HGA3     0.900000E-01   1.00800           0
      1180 CLST     118      ACO      H33      HGA3     0.900000E-01   1.00800           0
      1181 CLST     119      ACO      O1       OG2D3   -0.480000       15.9994           0
      1182 CLST     119      ACO      C1       CG2O5    0.400000       12.0110           0
      1183 CLST     119      ACO      C2       CG331   -0.230000       12.0110           0
      1184 CLST     119      ACO      C3       CG331   -0.230000       12.0110           0
      1185 CLST     119      ACO      H21      HGA3     0.900000E-01   1.00800           0
      1186 CLST     119      ACO      H22      HGA3     0.900000E-01   1.00800           0
      1187 CLST     119      ACO      H23      HGA3     0.900000E-01   1.00800           0
      1188 CLST     119      ACO      H31      HGA3     0.900000E-01   1.00800           0
      1189 CLST     119      ACO      H32      HGA3     0.900000E-01   1.00800           0
      1190 CLST     119      ACO      H33      HGA3     0.900000E-01   1.00800           0
      1191 CLST     120      ACO      O1       OG2D3   -0.480000       15.9994           0
      1192 CLST     120      ACO      C1       CG2O5    0.400000       12.0110           0
      1193 CLST     120      ACO      C2       CG331   -0.230000       12.0110           0
      1194 CLST     120      ACO      C3       CG331   -0.230000       12.0110           0
      1195 CLST     120      ACO      H21      HGA3     0.900000E-01   1.00800           0
      1196 CLST     120      ACO      H22      HGA3     0.900000E-01   1.00800           0
      1197 CLST     120      ACO      H23      HGA3     0.900000E-01   1.00800           0
      1198 CLST     120      ACO      H31      HGA3     0.900000E-01   1.00800           0
      1199 CLST     120      ACO      H32      HGA3     0.900000E-01   1.00800           0
      1200 CLST     120      ACO      H33      HGA3     0.900000E-01   1.00800           0
      1201 CLST     121      ACO      O1       OG2D3   -0.480000       15.9994           0
      1202 CLST     121      ACO      C1       CG2O5    0.400000       12.0110           0
      1203 CLST     121      ACO      C2       CG331   -0.230000       12.0110           0
      1204 CLST     121      ACO      C3       CG331   -0.230000       12.0110           0
      1205 CLST     121      ACO      H21      HGA3     0.900000E-01   1.00800           0
      1206 CLST     121      ACO      H22      HGA3     0.900000E-01   1.00800           0
      1207 CLST     121      ACO      H23      HGA3     0.900000E-01   1.00800           0
      1208 CLST     121      ACO      H31      HGA3     0.900000E-01   1.00800           0
      1209 CLST     121      ACO      H32      HGA3     0.900000E-01   1.00800           0
      1210 CLST     121      ACO      H33      HGA3     0.900000E-01   1.00800           0
      1211 CLST     122      ACO      O1       OG2D3   -0.480000       15.9994           0
      1212 CLST     122      ACO      C1       CG2O5    0.400000       12.0110           0
      1213 CLST     122      ACO      C2       CG331   -0.230000       12.0110           0
      1214 CLST     122      ACO      C3       CG331   -0.230000       12.0110           0
      1215 CLST     122      ACO      H21      HGA3     0.900000E-01   1.00800           0
      1216 CLST     122      ACO      H22      HGA3     0.900000E-01   1.00800           0
      1217 CLST     122      ACO      H23      HGA3     0.900000E-01   1.00800           0
      1218 CLST     122      ACO      H31      HGA3     0.900000E-01   1.00800           0
      1219 CLST     122      ACO      H32      HGA3     0.900000E-01   1.00800           0
      1220 CLST     122      ACO      H33      HGA3     0.900000E-01   1.00800           0
      1221 CLST     123      ACO      O1       OG2D3   -0.480000       15.9994           0
      1222 CLST     123      ACO      C1       CG2O5    0.400000       12.0110           0
      1223 CLST     123      ACO      C2       CG331   -0.230000       12.0110           0
      1224 CLST     123      ACO      C3       CG331   -0.230000       12.0110           0
      1225 CLST     123      ACO      H21      HGA3     0.900000E-01   1.00800           0
      1226 CLST     123      ACO      H22      HGA3     0.900000E-01   1.00800           0
      1227 CLST     123      ACO      H23      HGA3     0.900000E-01   1.00800           0
      1228 CLST     123      ACO      H31      HGA3     0.900000E-01   1.00800           0
      1229 CLST     123      ACO      H32      HGA3     0.900000E-01   1.00800           0
      1230 CLST     123      ACO      H33      HGA3     0.900000E-01   1.00800           0
      1231 CLST     124      ACO      O1       OG2D3   -0.480000       15.9994           0
      1232 CLST     124      ACO      C1       CG2O5    0.400000       12.0110           0
      1233 CLST     124      ACO      C2       CG331   -0.230000       12.0110           0
      1234 CLST     124      ACO      C3       CG331   -0.230000       12.0110           0
      1235 CLST     124      ACO      H21      HGA3     0.900000E-01   1.00800           0
      1236 CLST     124      ACO      H22      HGA3     0.900000E-01   1.00800           0
      1237 CLST     124      ACO      H23      HGA3     0.900000E-01   1.00800           0
      1238 CLST     124      ACO      H31      HGA3     0.900000E-01   1.00800           0
      1239 CLST     124      ACO      H32      HGA3     0.900000E-01   1.00800           0
      1240 CLST     124      ACO      H33      HGA3     0.900000E-01   1.00800           0
      1241 CLST     125      ACO      O1       OG2D3   -0.480000       15.9994           0
      1242 CLST     125      ACO      C1       CG2O5    0.400000       12.0110           0
      1243 CLST     125      ACO      C2       CG331   -0.230000       12.0110           0
      1244 CLST     125      ACO      C3       CG331   -0.230000       12.0110           0
      1245 CLST     125      ACO      H21      HGA3     0.900000E-01   1.00800           0
      1246 CLST     125      ACO      H22      HGA3     0.900000E-01   1.00800           0
      1247 CLST     125      ACO      H23      HGA3     0.900000E-01   1.00800           0
      1248 CLST     125      ACO      H31      HGA3     0.900000E-01   1.00800           0
      1249 CLST     125      ACO      H32      HGA3     0.900000E-01   1.00800           0
      1250 CLST     125      ACO      H33      HGA3     0.900000E-01   1.00800           0
      1251 CLST     126      ACO      O1       OG2D3   -0.480000       15.9994           0
      1252 CLST     126      ACO      C1       CG2O5    0.400000       12.0110           0
      1253 CLST     126      ACO      C2       CG331   -0.230000       12.0110           0
      1254 CLST     126      ACO      C3       CG331   -0.230000       12.0110           0
      1255 CLST     126      ACO      H21      HGA3     0.900000E-01   1.00800           0
      1256 CLST     126      ACO      H22      HGA3     0.900000E-01   1.00800           0
      1257 CLST     126      ACO      H23      HGA3     0.900000E-01   1.00800           0
      1258 CLST     126      ACO      H31      HGA3     0.900000E-01   1.00800           0
      1259 CLST     126      ACO      H32      HGA3     0.900000E-01   1.00800           0
      1260 CLST     126      ACO      H33      HGA3     0.900000E-01   1.00800           0
      1261 CLST     127      ACO      O1       OG2D3   -0.480000       15.9994           0
      1262 CLST     127      ACO      C1       CG2O5    0.400000       12.0110           0
      1263 CLST     127      ACO      C2       CG331   -0.230000       12.0110           0
      1264 CLST     127      ACO      C3       CG331   -0.230000       12.0110           0
      1265 CLST     127      ACO      H21      HGA3     0.900000E-01   1.00800           0
      1266 CLST     127      ACO      H22      HGA3     0.900000E-01   1.00800           0
      1267 CLST     127      ACO      H23      HGA3     0.900000E-01   1.00800           0
      1268 CLST     127      ACO      H31      HGA3     0.900000E-01   1.00800           0
      1269 CLST     127      ACO      H32      HGA3     0.900000E-01   1.00800           0
      1270 CLST     127      ACO      H33      HGA3     0.900000E-01   1.00800           0
      1271 CLST     128      ACO      O1       OG2D3   -0.480000       15.9994           0
      1272 CLST     128      ACO      C1       CG2O5    0.400000       12.0110           0
      1273 CLST     128      ACO      C2       CG331   -0.230000       12.0110           0
      1274 CLST     128      ACO      C3       CG331   -0.230000       12.0110           0
      1275 CLST     128      ACO      H21      HGA3     0.900000E-01   1.00800           0
      1276 CLST     128      ACO      H22      HGA3     0.900000E-01   1.00800           0
      1277 CLST     128      ACO      H23      HGA3     0.900000E-01   1.00800           0
      1278 CLST     128      ACO      H31      HGA3     0.900000E-01   1.00800           0
      1279 CLST     128      ACO      H32      HGA3     0.900000E-01   1.00800           0
      1280 CLST     128      ACO      H33      HGA3     0.900000E-01   1.00800           0
      1281 CLST     129      ACO      O1       OG2D3   -0.480000       15.9994           0
      1282 CLST     129      ACO      C1       CG2O5    0.400000       12.0110           0
      1283 CLST     129      ACO      C2       CG331   -0.230000       12.0110           0
      1284 CLST     129      ACO      C3       CG331   -0.230000       12.0110           0
      1285 CLST     129      ACO      H21      HGA3     0.900000E-01   1.00800           0
      1286 CLST     129      ACO      H22      HGA3     0.900000E-01   1.00800           0
      1287 CLST     129      ACO      H23      HGA3     0.900000E-01   1.00800           0
      1288 CLST     129      ACO      H31      HGA3     0.900000E-01   1.00800           0
      1289 CLST     129      ACO      H32      HGA3     0.900000E-01   1.00800           0
      1290 CLST     129      ACO      H33      HGA3     0.900000E-01   1.00800           0
      1291 CLST     130      ACO      O1       OG2D3   -0.480000       15.9994           0
      1292 CLST     130      ACO      C1       CG2O5    0.400000       12.0110           0
      1293 CLST     130      ACO      C2       CG331   -0.230000       12.0110           0
      1294 CLST     130      ACO      C3       CG331   -0.230000       12.0110           0
      1295 CLST     130      ACO      H21      HGA3     0.900000E-01   1.00800           0
      1296 CLST     130      ACO      H22      HGA3     0.900000E-01   1.00800           0
      1297 CLST     130      ACO      H23      HGA3     0.900000E-01   1.00800           0
      1298 CLST     130      ACO      H31      HGA3     0.900000E-01   1.00800           0
      1299 CLST     130      ACO      H32      HGA3     0.900000E-01   1.00800           0
      1300 CLST     130      ACO      H33      HGA3     0.900000E-01   1.00800           0
      1301 CLST     131      ACO      O1       OG2D3   -0.480000       15.9994           0
      1302 CLST     131      ACO      C1       CG2O5    0.400000       12.0110           0
      1303 CLST     131      ACO      C2       CG331   -0.230000       12.0110           0
      1304 CLST     131      ACO      C3       CG331   -0.230000       12.0110           0
      1305 CLST     131      ACO      H21      HGA3     0.900000E-01   1.00800           0
      1306 CLST     131      ACO      H22      HGA3     0.900000E-01   1.00800           0
      1307 CLST     131      ACO      H23      HGA3     0.900000E-01   1.00800           0
      1308 CLST     131      ACO      H31      HGA3     0.900000E-01   1.00800           0
      1309 CLST     131      ACO      H32      HGA3     0.900000E-01   1.00800           0
      1310 CLST     131      ACO      H33      HGA3     0.900000E-01   1.00800           0
      1311 CLST     132      ACO      O1       OG2D3   -0.480000       15.9994           0
      1312 CLST     132      ACO      C1       CG2O5    0.400000       12.0110           0
      1313 CLST     132      ACO      C2       CG331   -0.230000       12.0110           0
      1314 CLST     132      ACO      C3       CG331   -0.230000       12.0110           0
      1315 CLST     132      ACO      H21      HGA3     0.900000E-01   1.00800           0
      1316 CLST     132      ACO      H22      HGA3     0.900000E-01   1.00800           0
      1317 CLST     132      ACO      H23      HGA3     0.900000E-01   1.00800           0
      1318 CLST     132      ACO      H31      HGA3     0.900000E-01   1.00800           0
      1319 CLST     132      ACO      H32      HGA3     0.900000E-01   1.00800           0
      1320 CLST     132      ACO      H33      HGA3     0.900000E-01   1.00800           0
      1321 CLST     133      ACO      O1       OG2D3   -0.480000       15.9994           0
      1322 CLST     133      ACO      C1       CG2O5    0.400000       12.0110           0
      1323 CLST     133      ACO      C2       CG331   -0.230000       12.0110           0
      1324 CLST     133      ACO      C3       CG331   -0.230000       12.0110           0
      1325 CLST     133      ACO      H21      HGA3     0.900000E-01   1.00800           0
      1326 CLST     133      ACO      H22      HGA3     0.900000E-01   1.00800           0
      1327 CLST     133      ACO      H23      HGA3     0.900000E-01   1.00800           0
      1328 CLST     133      ACO      H31      HGA3     0.900000E-01   1.00800           0
      1329 CLST     133      ACO      H32      HGA3     0.900000E-01   1.00800           0
      1330 CLST     133      ACO      H33      HGA3     0.900000E-01   1.00800           0
      1331 CLST     134      ACO      O1       OG2D3   -0.480000       15.9994           0
      1332 CLST     134      ACO      C1       CG2O5    0.400000       12.0110           0
      1333 CLST     134      ACO      C2       CG331   -0.230000       12.0110           0
      1334 CLST     134      ACO      C3       CG331   -0.230000       12.0110           0
      1335 CLST     134      ACO      H21      HGA3     0.900000E-01   1.00800           0
      1336 CLST     134      ACO      H22      HGA3     0.900000E-01   1.00800           0
      1337 CLST     134      ACO      H23      HGA3     0.900000E-01   1.00800           0
      1338 CLST     134      ACO      H31      HGA3     0.900000E-01   1.00800           0
      1339 CLST     134      ACO      H32      HGA3     0.900000E-01   1.00800           0
      1340 CLST     134      ACO      H33      HGA3     0.900000E-01   1.00800           0
      1341 CLST     135      ACO      O1       OG2D3   -0.480000       15.9994           0
      1342 CLST     135      ACO      C1       CG2O5    0.400000       12.0110           0
      1343 CLST     135      ACO      C2       CG331   -0.230000       12.0110           0
      1344 CLST     135      ACO      C3       CG331   -0.230000       12.0110           0
      1345 CLST     135      ACO      H21      HGA3     0.900000E-01   1.00800           0
      1346 CLST     135      ACO      H22      HGA3     0.900000E-01   1.00800           0
      1347 CLST     135      ACO      H23      HGA3     0.900000E-01   1.00800           0
      1348 CLST     135      ACO      H31      HGA3     0.900000E-01   1.00800           0
      1349 CLST     135      ACO      H32      HGA3     0.900000E-01   1.00800           0
      1350 CLST     135      ACO      H33      HGA3     0.900000E-01   1.00800           0
      1351 CLST     136      ACO      O1       OG2D3   -0.480000       15.9994           0
      1352 CLST     136      ACO      C1       CG2O5    0.400000       12.0110           0
      1353 CLST     136      ACO      C2       CG331   -0.230000       12.0110           0
      1354 CLST     136      ACO      C3       CG331   -0.230000       12.0110           0
      1355 CLST     136      ACO      H21      HGA3     0.900000E-01   1.00800           0
      1356 CLST     136      ACO      H22      HGA3     0.900000E-01   1.00800           0
      1357 CLST     136      ACO      H23      HGA3     0.900000E-01   1.00800           0
      1358 CLST     136      ACO      H31      HGA3     0.900000E-01   1.00800           0
      1359 CLST     136      ACO      H32      HGA3     0.900000E-01   1.00800           0
      1360 CLST     136      ACO      H33      HGA3     0.900000E-01   1.00800           0
      1361 CLST     137      ACO      O1       OG2D3   -0.480000       15.9994           0
      1362 CLST     137      ACO      C1       CG2O5    0.400000       12.0110           0
      1363 CLST     137      ACO      C2       CG331   -0.230000       12.0110           0
      1364 CLST     137      ACO      C3       CG331   -0.230000       12.0110           0
      1365 CLST     137      ACO      H21      HGA3     0.900000E-01   1.00800           0
      1366 CLST     137      ACO      H22      HGA3     0.900000E-01   1.00800           0
      1367 CLST     137      ACO      H23      HGA3     0.900000E-01   1.00800           0
      1368 CLST     137      ACO      H31      HGA3     0.900000E-01   1.00800           0
      1369 CLST     137      ACO      H32      HGA3     0.900000E-01   1.00800           0
      1370 CLST     137      ACO      H33      HGA3     0.900000E-01   1.00800           0
      1371 CLST     138      ACO      O1       OG2D3   -0.480000       15.9994           0
      1372 CLST     138      ACO      C1       CG2O5    0.400000       12.0110           0
      1373 CLST     138      ACO      C2       CG331   -0.230000       12.0110           0
      1374 CLST     138      ACO      C3       CG331   -0.230000       12.0110           0
      1375 CLST     138      ACO      H21      HGA3     0.900000E-01   1.00800           0
      1376 CLST     138      ACO      H22      HGA3     0.900000E-01   1.00800           0
      1377 CLST     138      ACO      H23      HGA3     0.900000E-01   1.00800           0
      1378 CLST     138      ACO      H31      HGA3     0.900000E-01   1.00800           0
      1379 CLST     138      ACO      H32      HGA3     0.900000E-01   1.00800           0
      1380 CLST     138      ACO      H33      HGA3     0.900000E-01   1.00800           0
      1381 CLST     139      ACO      O1       OG2D3   -0.480000       15.9994           0
      1382 CLST     139      ACO      C1       CG2O5    0.400000       12.0110           0
      1383 CLST     139      ACO      C2       CG331   -0.230000       12.0110           0
      1384 CLST     139      ACO      C3       CG331   -0.230000       12.0110           0
      1385 CLST     139      ACO      H21      HGA3     0.900000E-01   1.00800           0
      1386 CLST     139      ACO      H22      HGA3     0.900000E-01   1.00800           0
      1387 CLST     139      ACO      H23      HGA3     0.900000E-01   1.00800           0
      1388 CLST     139      ACO      H31      HGA3     0.900000E-01   1.00800           0
      1389 CLST     139      ACO      H32      HGA3     0.900000E-01   1.00800           0
      1390 CLST     139      ACO      H33      HGA3     0.900000E-01   1.00800           0
      1391 CLST     140      ACO      O1       OG2D3   -0.480000       15.9994           0
      1392 CLST     140      ACO      C1       CG2O5    0.400000       12.0110           0
      1393 CLST     140      ACO      C2       CG331   -0.230000       12.0110           0
      1394 CLST     140      ACO      C3       CG331   -0.230000       12.0110           0
      1395 CLST     140      ACO      H21      HGA3     0.900000E-01   1.00800           0
      1396 CLST     140      ACO      H22      HGA3     0.900000E-01   1.00800           0
      1397 CLST     140      ACO      H23      HGA3     0.900000E-01   1.00800           0
      1398 CLST     140      ACO      H31      HGA3     0.900000E-01   1.00800           0
      1399 CLST     140      ACO      H32      HGA3     0.900000E-01   1.00800           0
      1400 CLST     140      ACO      H33      HGA3     0.900000E-01   1.00800           0
      1401 CLST     141      ACO      O1       OG2D3   -0.480000       15.9994           0
      1402 CLST     141      ACO      C1       CG2O5    0.400000       12.0110           0
      1403 CLST     141      ACO      C2       CG331   -0.230000       12.0110           0
      1404 CLST     141      ACO      C3       CG331   -0.230000       12.0110           0
      1405 CLST     141      ACO      H21      HGA3     0.900000E-01   1.00800           0
      1406 CLST     141      ACO      H22      HGA3     0.900000E-01   1.00800           0
      1407 CLST     141      ACO      H23      HGA3     0.900000E-01   1.00800           0
      1408 CLST     141      ACO      H31      HGA3     0.900000E-01   1.00800           0
      1409 CLST     141      ACO      H32      HGA3     0.900000E-01   1.00800           0
      1410 CLST     141      ACO      H33      HGA3     0.900000E-01   1.00800           0
      1411 CLST     142      ACO      O1       OG2D3   -0.480000       15.9994           0
      1412 CLST     142      ACO      C1       CG2O5    0.400000       12.0110           0
      1413 CLST     142      ACO      C2       CG331   -0.230000       12.0110           0
      1414 CLST     142      ACO      C3       CG331   -0.230000       12.0110           0
      1415 CLST     142      ACO      H21      HGA3     0.900000E-01   1.00800           0
      1416 CLST     142      ACO      H22      HGA3     0.900000E-01   1.00800           0
      1417 CLST     142      ACO      H23      HGA3     0.900000E-01   1.00800           0
      1418 CLST     142      ACO      H31      HGA3     0.900000E-01   1.00800           0
      1419 CLST     142      ACO      H32      HGA3     0.900000E-01   1.00800           0
      1420 CLST     142      ACO      H33      HGA3     0.900000E-01   1.00800           0
      1421 CLST     143      ACO      O1       OG2D3   -0.480000       15.9994           0
      1422 CLST     143      ACO      C1       CG2O5    0.400000       12.0110           0
      1423 CLST     143      ACO      C2       CG331   -0.230000       12.0110           0
      1424 CLST     143      ACO      C3       CG331   -0.230000       12.0110           0
      1425 CLST     143      ACO      H21      HGA3     0.900000E-01   1.00800           0
      1426 CLST     143      ACO      H22      HGA3     0.900000E-01   1.00800           0
      1427 CLST     143      ACO      H23      HGA3     0.900000E-01   1.00800           0
      1428 CLST     143      ACO      H31      HGA3     0.900000E-01   1.00800           0
      1429 CLST     143      ACO      H32      HGA3     0.900000E-01   1.00800           0
      1430 CLST     143      ACO      H33      HGA3     0.900000E-01   1.00800           0
      1431 CLST     144      ACO      O1       OG2D3   -0.480000       15.9994           0
      1432 CLST     144      ACO      C1       CG2O5    0.400000       12.0110           0
      1433 CLST     144      ACO      C2       CG331   -0.230000       12.0110           0
      1434 CLST     144      ACO      C3       CG331   -0.230000       12.0110           0
      1435 CLST     144      ACO      H21      HGA3     0.900000E-01   1.00800           0
      1436 CLST     144      ACO      H22      HGA3     0.900000E-01   1.00800           0
      1437 CLST     144      ACO      H23      HGA3     0.900000E-01   1.00800           0
      1438 CLST     144      ACO      H31      HGA3     0.900000E-01   1.00800           0
      1439 CLST     144      ACO      H32      HGA3     0.900000E-01   1.00800           0
      1440 CLST     144      ACO      H33      HGA3     0.900000E-01   1.00800           0
      1441 CLST     145      ACO      O1       OG2D3   -0.480000       15.9994           0
      1442 CLST     145      ACO      C1       CG2O5    0.400000       12.0110           0
      1443 CLST     145      ACO      C2       CG331   -0.230000       12.0110           0
      1444 CLST     145      ACO      C3       CG331   -0.230000       12.0110           0
      1445 CLST     145      ACO      H21      HGA3     0.900000E-01   1.00800           0
      1446 CLST     145      ACO      H22      HGA3     0.900000E-01   1.00800           0
      1447 CLST     145      ACO      H23      HGA3     0.900000E-01   1.00800           0
      1448 CLST     145      ACO      H31      HGA3     0.900000E-01   1.00800           0
      1449 CLST     145      ACO      H32      HGA3     0.900000E-01   1.00800           0
      1450 CLST     145      ACO      H33      HGA3     0.900000E-01   1.00800           0
      1451 CLST     146      ACO      O1       OG2D3   -0.480000       15.9994           0
      1452 CLST     146      ACO      C1       CG2O5    0.400000       12.0110           0
      1453 CLST     146      ACO      C2       CG331   -0.230000       12.0110           0
      1454 CLST     146      ACO      C3       CG331   -0.230000       12.0110           0
      1455 CLST     146      ACO      H21      HGA3     0.900000E-01   1.00800           0
      1456 CLST     146      ACO      H22      HGA3     0.900000E-01   1.00800           0
      1457 CLST     146      ACO      H23      HGA3     0.900000E-01   1.00800           0
      1458 CLST     146      ACO      H31      HGA3     0.900000E-01   1.00800           0
      1459 CLST     146      ACO      H32      HGA3     0.900000E-01   1.00800           0
      1460 CLST     146      ACO      H33      HGA3     0.900000E-01   1.00800           0
      1461 CLST     147      ACO      O1       OG2D3   -0.480000       15.9994           0
      1462 CLST     147      ACO      C1       CG2O5    0.400000       12.0110           0
      1463 CLST     147      ACO      C2       CG331   -0.230000       12.0110           0
      1464 CLST     147      ACO      C3       CG331   -0.230000       12.0110           0
      1465 CLST     147      ACO      H21      HGA3     0.900000E-01   1.00800           0
      1466 CLST     147      ACO      H22      HGA3     0.900000E-01   1.00800           0
      1467 CLST     147      ACO      H23      HGA3     0.900000E-01   1.00800           0
      1468 CLST     147      ACO      H31      HGA3     0.900000E-01   1.00800           0
      1469 CLST     147      ACO      H32      HGA3     0.900000E-01   1.00800           0
      1470 CLST     147      ACO      H33      HGA3     0.900000E-01   1.00800           0
      1471 CLST     148      ACO      O1       OG2D3   -0.480000       15.9994           0
      1472 CLST     148      ACO      C1       CG2O5    0.400000       12.0110           0
      1473 CLST     148      ACO      C2       CG331   -0.230000       12.0110           0
      1474 CLST     148      ACO      C3       CG331   -0.230000       12.0110           0
      1475 CLST     148      ACO      H21      HGA3     0.900000E-01   1.00800           0
      1476 CLST     148      ACO      H22      HGA3     0.900000E-01   1.00800           0
      1477 CLST     148      ACO      H23      HGA3     0.900000E-01   1.00800           0
      1478 CLST     148      ACO      H31      HGA3     0.900000E-01   1.00800           0
      1479 CLST     148      ACO      H32      HGA3     0.900000E-01   1.00800           0
      1480 CLST     148      ACO      H33      HGA3     0.900000E-01   1.00800           0
      1481 CLST     149      ACO      O1       OG2D3   -0.480000       15.9994           0
      1482 CLST     149      ACO      C1       CG2O5    0.400000       12.0110           0
      1483 CLST     149      ACO      C2       CG331   -0.230000       12.0110           0
      1484 CLST     149      ACO      C3       CG331   -0.230000       12.0110           0
      1485 CLST     149      ACO      H21      HGA3     0.900000E-01   1.00800           0
      1486 CLST     149      ACO      H22      HGA3     0.900000E-01   1.00800           0
      1487 CLST     149      ACO      H23      HGA3     0.900000E-01   1.00800           0
      1488 CLST     149      ACO      H31      HGA3     0.900000E-01   1.00800           0
      1489 CLST     149      ACO      H32      HGA3     0.900000E-01   1.00800           0
      1490 CLST     149      ACO      H33      HGA3     0.900000E-01   1.00800           0
      1491 CLST     150      ACO      O1       OG2D3   -0.480000       15.9994           0
      1492 CLST     150      ACO      C1       CG2O5    0.400000       12.0110           0
      1493 CLST     150      ACO      C2       CG331   -0.230000       12.0110           0
      1494 CLST     150      ACO      C3       CG331   -0.230000       12.0110           0
      1495 CLST     150      ACO      H21      HGA3     0.900000E-01   1.00800           0
      1496 CLST     150      ACO      H22      HGA3     0.900000E-01   1.00800           0
      1497 CLST     150      ACO      H23      HGA3     0.900000E-01   1.00800           0
      1498 CLST     150      ACO      H31      HGA3     0.900000E-01   1.00800           0
      1499 CLST     150      ACO      H32      HGA3     0.900000E-01   1.00800           0
      1500 CLST     150      ACO      H33      HGA3     0.900000E-01   1.00800           0
      1501 CLST     151      ACO      O1       OG2D3   -0.480000       15.9994           0
      1502 CLST     151      ACO      C1       CG2O5    0.400000       12.0110           0
      1503 CLST     151      ACO      C2       CG331   -0.230000       12.0110           0
      1504 CLST     151      ACO      C3       CG331   -0.230000       12.0110           0
      1505 CLST     151      ACO      H21      HGA3     0.900000E-01   1.00800           0
      1506 CLST     151      ACO      H22      HGA3     0.900000E-01   1.00800           0
      1507 CLST     151      ACO      H23      HGA3     0.900000E-01   1.00800           0
      1508 CLST     151      ACO      H31      HGA3     0.900000E-01   1.00800           0
      1509 CLST     151      ACO      H32      HGA3     0.900000E-01   1.00800           0
      1510 CLST     151      ACO      H33      HGA3     0.900000E-01   1.00800           0
      1511 CLST     152      ACO      O1       OG2D3   -0.480000       15.9994           0
      1512 CLST     152      ACO      C1       CG2O5    0.400000       12.0110           0
      1513 CLST     152      ACO      C2       CG331   -0.230000       12.0110           0
      1514 CLST     152      ACO      C3       CG331   -0.230000       12.0110           0
      1515 CLST     152      ACO      H21      HGA3     0.900000E-01   1.00800           0
      1516 CLST     152      ACO      H22      HGA3     0.900000E-01   1.00800           0
      1517 CLST     152      ACO      H23      HGA3     0.900000E-01   1.00800           0
      1518 CLST     152      ACO      H31      HGA3     0.900000E-01   1.00800           0
      1519 CLST     152      ACO      H32      HGA3     0.900000E-01   1.00800           0
      1520 CLST     152      ACO      H33      HGA3     0.900000E-01   1.00800           0
      1521 CLST     153      ACO      O1       OG2D3   -0.480000       15.9994           0
      1522 CLST     153      ACO      C1       CG2O5    0.400000       12.0110           0
      1523 CLST     153      ACO      C2       CG331   -0.230000       12.0110           0
      1524 CLST     153      ACO      C3       CG331   -0.230000       12.0110           0
      1525 CLST     153      ACO      H21      HGA3     0.900000E-01   1.00800           0
      1526 CLST     153      ACO      H22      HGA3     0.900000E-01   1.00800           0
      1527 CLST     153      ACO      H23      HGA3     0.900000E-01   1.00800           0
      1528 CLST     153      ACO      H31      HGA3     0.900000E-01   1.00800           0
      1529 CLST     153      ACO      H32      HGA3     0.900000E-01   1.00800           0
      1530 CLST     153      ACO      H33      HGA3     0.900000E-01   1.00800           0
      1531 CLST     154      ACO      O1       OG2D3   -0.480000       15.9994           0
      1532 CLST     154      ACO      C1       CG2O5    0.400000       12.0110           0
      1533 CLST     154      ACO      C2       CG331   -0.230000       12.0110           0
      1534 CLST     154      ACO      C3       CG331   -0.230000       12.0110           0
      1535 CLST     154      ACO      H21      HGA3     0.900000E-01   1.00800           0
      1536 CLST     154      ACO      H22      HGA3     0.900000E-01   1.00800           0
      1537 CLST     154      ACO      H23      HGA3     0.900000E-01   1.00800           0
      1538 CLST     154      ACO      H31      HGA3     0.900000E-01   1.00800           0
      1539 CLST     154      ACO      H32      HGA3     0.900000E-01   1.00800           0
      1540 CLST     154      ACO      H33      HGA3     0.900000E-01   1.00800           0
      1541 CLST     155      ACO      O1       OG2D3   -0.480000       15.9994           0
      1542 CLST     155      ACO      C1       CG2O5    0.400000       12.0110           0
      1543 CLST     155      ACO      C2       CG331   -0.230000       12.0110           0
      1544 CLST     155      ACO      C3       CG331   -0.230000       12.0110           0
      1545 CLST     155      ACO      H21      HGA3     0.900000E-01   1.00800           0
      1546 CLST     155      ACO      H22      HGA3     0.900000E-01   1.00800           0
      1547 CLST     155      ACO      H23      HGA3     0.900000E-01   1.00800           0
      1548 CLST     155      ACO      H31      HGA3     0.900000E-01   1.00800           0
      1549 CLST     155      ACO      H32      HGA3     0.900000E-01   1.00800           0
      1550 CLST     155      ACO      H33      HGA3     0.900000E-01   1.00800           0
      1551 CLST     156      ACO      O1       OG2D3   -0.480000       15.9994           0
      1552 CLST     156      ACO      C1       CG2O5    0.400000       12.0110           0
      1553 CLST     156      ACO      C2       CG331   -0.230000       12.0110           0
      1554 CLST     156      ACO      C3       CG331   -0.230000       12.0110           0
      1555 CLST     156      ACO      H21      HGA3     0.900000E-01   1.00800           0
      1556 CLST     156      ACO      H22      HGA3     0.900000E-01   1.00800           0
      1557 CLST     156      ACO      H23      HGA3     0.900000E-01   1.00800           0
      1558 CLST     156      ACO      H31      HGA3     0.900000E-01   1.00800           0
      1559 CLST     156      ACO      H32      HGA3     0.900000E-01   1.00800           0
      1560 CLST     156      ACO      H33      HGA3     0.900000E-01   1.00800           0
      1561 CLST     157      ACO      O1       OG2D3   -0.480000       15.9994           0
      1562 CLST     157      ACO      C1       CG2O5    0.400000       12.0110           0
      1563 CLST     157      ACO      C2       CG331   -0.230000       12.0110           0
      1564 CLST     157      ACO      C3       CG331   -0.230000       12.0110           0
      1565 CLST     157      ACO      H21      HGA3     0.900000E-01   1.00800           0
      1566 CLST     157      ACO      H22      HGA3     0.900000E-01   1.00800           0
      1567 CLST     157      ACO      H23      HGA3     0.900000E-01   1.00800           0
      1568 CLST     157      ACO      H31      HGA3     0.900000E-01   1.00800           0
      1569 CLST     157      ACO      H32      HGA3     0.900000E-01   1.00800           0
      1570 CLST     157      ACO      H33      HGA3     0.900000E-01   1.00800           0
      1571 CLST     158      ACO      O1       OG2D3   -0.480000       15.9994           0
      1572 CLST     158      ACO      C1       CG2O5    0.400000       12.0110           0
      1573 CLST     158      ACO      C2       CG331   -0.230000       12.0110           0
      1574 CLST     158      ACO      C3       CG331   -0.230000       12.0110           0
      1575 CLST     158      ACO      H21      HGA3     0.900000E-01   1.00800           0
      1576 CLST     158      ACO      H22      HGA3     0.900000E-01   1.00800           0
      1577 CLST     158      ACO      H23      HGA3     0.900000E-01   1.00800           0
      1578 CLST     158      ACO      H31      HGA3     0.900000E-01   1.00800           0
      1579 CLST     158      ACO      H32      HGA3     0.900000E-01   1.00800           0
      1580 CLST     158      ACO      H33      HGA3     0.900000E-01   1.00800           0
      1581 CLST     159      ACO      O1       OG2D3   -0.480000       15.9994           0
      1582 CLST     159      ACO      C1       CG2O5    0.400000       12.0110           0
      1583 CLST     159      ACO      C2       CG331   -0.230000       12.0110           0
      1584 CLST     159      ACO      C3       CG331   -0.230000       12.0110           0
      1585 CLST     159      ACO      H21      HGA3     0.900000E-01   1.00800           0
      1586 CLST     159      ACO      H22      HGA3     0.900000E-01   1.00800           0
      1587 CLST     159      ACO      H23      HGA3     0.900000E-01   1.00800           0
      1588 CLST     159      ACO      H31      HGA3     0.900000E-01   1.00800           0
      1589 CLST     159      ACO      H32      HGA3     0.900000E-01   1.00800           0
      1590 CLST     159      ACO      H33      HGA3     0.900000E-01   1.00800           0
      1591 CLST     160      ACO      O1       OG2D3   -0.480000       15.9994           0
      1592 CLST     160      ACO      C1       CG2O5    0.400000       12.0110           0
      1593 CLST     160      ACO      C2       CG331   -0.230000       12.0110           0
      1594 CLST     160      ACO      C3       CG331   -0.230000       12.0110           0
      1595 CLST     160      ACO      H21      HGA3     0.900000E-01   1.00800           0
      1596 CLST     160      ACO      H22      HGA3     0.900000E-01   1.00800           0
      1597 CLST     160      ACO      H23      HGA3     0.900000E-01   1.00800           0
      1598 CLST     160      ACO      H31      HGA3     0.900000E-01   1.00800           0
      1599 CLST     160      ACO      H32      HGA3     0.900000E-01   1.00800           0
      1600 CLST     160      ACO      H33      HGA3     0.900000E-01   1.00800           0
      1601 CLST     161      ACO      O1       OG2D3   -0.480000       15.9994           0
      1602 CLST     161      ACO      C1       CG2O5    0.400000       12.0110           0
      1603 CLST     161      ACO      C2       CG331   -0.230000       12.0110           0
      1604 CLST     161      ACO      C3       CG331   -0.230000       12.0110           0
      1605 CLST     161      ACO      H21      HGA3     0.900000E-01   1.00800           0
      1606 CLST     161      ACO      H22      HGA3     0.900000E-01   1.00800           0
      1607 CLST     161      ACO      H23      HGA3     0.900000E-01   1.00800           0
      1608 CLST     161      ACO      H31      HGA3     0.900000E-01   1.00800           0
      1609 CLST     161      ACO      H32      HGA3     0.900000E-01   1.00800           0
      1610 CLST     161      ACO      H33      HGA3     0.900000E-01   1.00800           0
      1611 CLST     162      ACO      O1       OG2D3   -0.480000       15.9994           0
      1612 CLST     162      ACO      C1       CG2O5    0.400000       12.0110           0
      1613 CLST     162      ACO      C2       CG331   -0.230000       12.0110           0
      1614 CLST     162      ACO      C3       CG331   -0.230000       12.0110           0
      1615 CLST     162      ACO      H21      HGA3     0.900000E-01   1.00800           0
      1616 CLST     162      ACO      H22      HGA3     0.900000E-01   1.00800           0
      1617 CLST     162      ACO      H23      HGA3     0.900000E-01   1.00800           0
      1618 CLST     162      ACO      H31      HGA3     0.900000E-01   1.00800           0
      1619 CLST     162      ACO      H32      HGA3     0.900000E-01   1.00800           0
      1620 CLST     162      ACO      H33      HGA3     0.900000E-01   1.00800           0
      1621 CLST     163      ACO      O1       OG2D3   -0.480000       15.9994           0
      1622 CLST     163      ACO      C1       CG2O5    0.400000       12.0110           0
      1623 CLST     163      ACO      C2       CG331   -0.230000       12.0110           0
      1624 CLST     163      ACO      C3       CG331   -0.230000       12.0110           0
      1625 CLST     163      ACO      H21      HGA3     0.900000E-01   1.00800           0
      1626 CLST     163      ACO      H22      HGA3     0.900000E-01   1.00800           0
      1627 CLST     163      ACO      H23      HGA3     0.900000E-01   1.00800           0
      1628 CLST     163      ACO      H31      HGA3     0.900000E-01   1.00800           0
      1629 CLST     163      ACO      H32      HGA3     0.900000E-01   1.00800           0
      1630 CLST     163      ACO      H33      HGA3     0.900000E-01   1.00800           0
      1631 CLST     164      ACO      O1       OG2D3   -0.480000       15.9994           0
      1632 CLST     164      ACO      C1       CG2O5    0.400000       12.0110           0
      1633 CLST     164      ACO      C2       CG331   -0.230000       12.0110           0
      1634 CLST     164      ACO      C3       CG331   -0.230000       12.0110           0
      1635 CLST     164      ACO      H21      HGA3     0.900000E-01   1.00800           0
      1636 CLST     164      ACO      H22      HGA3     0.900000E-01   1.00800           0
      1637 CLST     164      ACO      H23      HGA3     0.900000E-01   1.00800           0
      1638 CLST     164      ACO      H31      HGA3     0.900000E-01   1.00800           0
      1639 CLST     164      ACO      H32      HGA3     0.900000E-01   1.00800           0
      1640 CLST     164      ACO      H33      HGA3     0.900000E-01   1.00800           0
      1641 CLST     165      ACO      O1       OG2D3   -0.480000       15.9994           0
      1642 CLST     165      ACO      C1       CG2O5    0.400000       12.0110           0
      1643 CLST     165      ACO      C2       CG331   -0.230000       12.0110           0
      1644 CLST     165      ACO      C3       CG331   -0.230000       12.0110           0
      1645 CLST     165      ACO      H21      HGA3     0.900000E-01   1.00800           0
      1646 CLST     165      ACO      H22      HGA3     0.900000E-01   1.00800           0
      1647 CLST     165      ACO      H23      HGA3     0.900000E-01   1.00800           0
      1648 CLST     165      ACO      H31      HGA3     0.900000E-01   1.00800           0
      1649 CLST     165      ACO      H32      HGA3     0.900000E-01   1.00800           0
      1650 CLST     165      ACO      H33      HGA3     0.900000E-01   1.00800           0
      1651 CLST     166      ACO      O1       OG2D3   -0.480000       15.9994           0
      1652 CLST     166      ACO      C1       CG2O5    0.400000       12.0110           0
      1653 CLST     166      ACO      C2       CG331   -0.230000       12.0110           0
      1654 CLST     166      ACO      C3       CG331   -0.230000       12.0110           0
      1655 CLST     166      ACO      H21      HGA3     0.900000E-01   1.00800           0
      1656 CLST     166      ACO      H22      HGA3     0.900000E-01   1.00800           0
      1657 CLST     166      ACO      H23      HGA3     0.900000E-01   1.00800           0
      1658 CLST     166      ACO      H31      HGA3     0.900000E-01   1.00800           0
      1659 CLST     166      ACO      H32      HGA3     0.900000E-01   1.00800           0
      1660 CLST     166      ACO      H33      HGA3     0.900000E-01   1.00800           0
      1661 CLST     167      ACO      O1       OG2D3   -0.480000       15.9994           0
      1662 CLST     167      ACO      C1       CG2O5    0.400000       12.0110           0
      1663 CLST     167      ACO      C2       CG331   -0.230000       12.0110           0
      1664 CLST     167      ACO      C3       CG331   -0.230000       12.0110           0
      1665 CLST     167      ACO      H21      HGA3     0.900000E-01   1.00800           0
      1666 CLST     167      ACO      H22      HGA3     0.900000E-01   1.00800           0
      1667 CLST     167      ACO      H23      HGA3     0.900000E-01   1.00800           0
      1668 CLST     167      ACO      H31      HGA3     0.900000E-01   1.00800           0
      1669 CLST     167      ACO      H32      HGA3     0.900000E-01   1.00800           0
      1670 CLST     167      ACO      H33      HGA3     0.900000E-01   1.00800           0
      1671 CLST     168      ACO      O1       OG2D3   -0.480000       15.9994           0
      1672 CLST     168      ACO      C1       CG2O5    0.400000       12.0110           0
      1673 CLST     168      ACO      C2       CG331   -0.230000       12.0110           0
      1674 CLST     168      ACO      C3       CG331   -0.230000       12.0110           0
      1675 CLST     168      ACO      H21      HGA3     0.900000E-01   1.00800           0
      1676 CLST     168      ACO      H22      HGA3     0.900000E-01   1.00800           0
      1677 CLST     168      ACO      H23      HGA3     0.900000E-01   1.00800           0
      1678 CLST     168      ACO      H31      HGA3     0.900000E-01   1.00800           0
      1679 CLST     168      ACO      H32      HGA3     0.900000E-01   1.00800           0
      1680 CLST     168      ACO      H33      HGA3     0.900000E-01   1.00800           0
      1681 CLST     169      ACO      O1       OG2D3   -0.480000       15.9994           0
      1682 CLST     169      ACO      C1       CG2O5    0.400000       12.0110           0
      1683 CLST     169      ACO      C2       CG331   -0.230000       12.0110           0
      1684 CLST     169      ACO      C3       CG331   -0.230000       12.0110           0
      1685 CLST     169      ACO      H21      HGA3     0.900000E-01   1.00800           0
      1686 CLST     169      ACO      H22      HGA3     0.900000E-01   1.00800           0
      1687 CLST     169      ACO      H23      HGA3     0.900000E-01   1.00800           0
      1688 CLST     169      ACO      H31      HGA3     0.900000E-01   1.00800           0
      1689 CLST     169      ACO      H32      HGA3     0.900000E-01   1.00800           0
      1690 CLST     169      ACO      H33      HGA3     0.900000E-01   1.00800           0
      1691 CLST     170      ACO      O1       OG2D3   -0.480000       15.9994           0
      1692 CLST     170      ACO      C1       CG2O5    0.400000       12.0110           0
      1693 CLST     170      ACO      C2       CG331   -0.230000       12.0110           0
      1694 CLST     170      ACO      C3       CG331   -0.230000       12.0110           0
      1695 CLST     170      ACO      H21      HGA3     0.900000E-01   1.00800           0
      1696 CLST     170      ACO      H22      HGA3     0.900000E-01   1.00800           0
      1697 CLST     170      ACO      H23      HGA3     0.900000E-01   1.00800           0
      1698 CLST     170      ACO      H31      HGA3     0.900000E-01   1.00800           0
      1699 CLST     170      ACO      H32      HGA3     0.900000E-01   1.00800           0
      1700 CLST     170      ACO      H33      HGA3     0.900000E-01   1.00800           0
      1701 CLST     171      ACO      O1       OG2D3   -0.480000       15.9994           0
      1702 CLST     171      ACO      C1       CG2O5    0.400000       12.0110           0
      1703 CLST     171      ACO      C2       CG331   -0.230000       12.0110           0
      1704 CLST     171      ACO      C3       CG331   -0.230000       12.0110           0
      1705 CLST     171      ACO      H21      HGA3     0.900000E-01   1.00800           0
      1706 CLST     171      ACO      H22      HGA3     0.900000E-01   1.00800           0
      1707 CLST     171      ACO      H23      HGA3     0.900000E-01   1.00800           0
      1708 CLST     171      ACO      H31      HGA3     0.900000E-01   1.00800           0
      1709 CLST     171      ACO      H32      HGA3     0.900000E-01   1.00800           0
      1710 CLST     171      ACO      H33      HGA3     0.900000E-01   1.00800           0
      1711 CLST     172      ACO      O1       OG2D3   -0.480000       15.9994           0
      1712 CLST     172      ACO      C1       CG2O5    0.400000       12.0110           0
      1713 CLST     172      ACO      C2       CG331   -0.230000       12.0110           0
      1714 CLST     172      ACO      C3       CG331   -0.230000       12.0110           0
      1715 CLST     172      ACO      H21      HGA3     0.900000E-01   1.00800           0
      1716 CLST     172      ACO      H22      HGA3     0.900000E-01   1.00800           0
      1717 CLST     172      ACO      H23      HGA3     0.900000E-01   1.00800           0
      1718 CLST     172      ACO      H31      HGA3     0.900000E-01   1.00800           0
      1719 CLST     172      ACO      H32      HGA3     0.900000E-01   1.00800           0
      1720 CLST     172      ACO      H33      HGA3     0.900000E-01   1.00800           0
      1721 CLST     173      ACO      O1       OG2D3   -0.480000       15.9994           0
      1722 CLST     173      ACO      C1       CG2O5    0.400000       12.0110           0
      1723 CLST     173      ACO      C2       CG331   -0.230000       12.0110           0
      1724 CLST     173      ACO      C3       CG331   -0.230000       12.0110           0
      1725 CLST     173      ACO      H21      HGA3     0.900000E-01   1.00800           0
      1726 CLST     173      ACO      H22      HGA3     0.900000E-01   1.00800           0
      1727 CLST     173      ACO      H23      HGA3     0.900000E-01   1.00800           0
      1728 CLST     173      ACO      H31      HGA3     0.900000E-01   1.00800           0
      1729 CLST     173      ACO      H32      HGA3     0.900000E-01   1.00800           0
      1730 CLST     173      ACO      H33      HGA3     0.900000E-01   1.00800           0
      1731 CLST     174      ACO      O1       OG2D3   -0.480000       15.9994           0
      1732 CLST     174      ACO      C1       CG2O5    0.400000       12.0110           0
      1733 CLST     174      ACO      C2       CG331   -0.230000       12.0110           0
      1734 CLST     174      ACO      C3       CG331   -0.230000       12.0110           0
      1735 CLST     174      ACO      H21      HGA3     0.900000E-01   1.00800           0
      1736 CLST     174      ACO      H22      HGA3     0.900000E-01   1.00800           0
      1737 CLST     174      ACO      H23      HGA3     0.900000E-01   1.00800           0
      1738 CLST     174      ACO      H31      HGA3     0.900000E-01   1.00800           0
      1739 CLST     174      ACO      H32      HGA3     0.900000E-01   1.00800           0
      1740 CLST     174      ACO      H33      HGA3     0.900000E-01   1.00800           0
      1741 CLST     175      ACO      O1       OG2D3   -0.480000       15.9994           0
      1742 CLST     175      ACO      C1       CG2O5    0.400000       12.0110           0
      1743 CLST     175      ACO      C2       CG331   -0.230000       12.0110           0
      1744 CLST     175      ACO      C3       CG331   -0.230000       12.0110           0
      1745 CLST     175      ACO      H21      HGA3     0.900000E-01   1.00800           0
      1746 CLST     175      ACO      H22      HGA3     0.900000E-01   1.00800           0
      1747 CLST     175      ACO      H23      HGA3     0.900000E-01   1.00800           0
      1748 CLST     175      ACO      H31      HGA3     0.900000E-01   1.00800           0
      1749 CLST     175      ACO      H32      HGA3     0.900000E-01   1.00800           0
      1750 CLST     175      ACO      H33      HGA3     0.900000E-01   1.00800           0
      1751 CLST     176      ACO      O1       OG2D3   -0.480000       15.9994           0
      1752 CLST     176      ACO      C1       CG2O5    0.400000       12.0110           0
      1753 CLST     176      ACO      C2       CG331   -0.230000       12.0110           0
      1754 CLST     176      ACO      C3       CG331   -0.230000       12.0110           0
      1755 CLST     176      ACO      H21      HGA3     0.900000E-01   1.00800           0
      1756 CLST     176      ACO      H22      HGA3     0.900000E-01   1.00800           0
      1757 CLST     176      ACO      H23      HGA3     0.900000E-01   1.00800           0
      1758 CLST     176      ACO      H31      HGA3     0.900000E-01   1.00800           0
      1759 CLST     176      ACO      H32      HGA3     0.900000E-01   1.00800           0
      1760 CLST     176      ACO      H33      HGA3     0.900000E-01   1.00800           0
      1761 CLST     177      ACO      O1       OG2D3   -0.480000       15.9994           0
      1762 CLST     177      ACO      C1       CG2O5    0.400000       12.0110           0
      1763 CLST     177      ACO      C2       CG331   -0.230000       12.0110           0
      1764 CLST     177      ACO      C3       CG331   -0.230000       12.0110           0
      1765 CLST     177      ACO      H21      HGA3     0.900000E-01   1.00800           0
      1766 CLST     177      ACO      H22      HGA3     0.900000E-01   1.00800           0
      1767 CLST     177      ACO      H23      HGA3     0.900000E-01   1.00800           0
      1768 CLST     177      ACO      H31      HGA3     0.900000E-01   1.00800           0
      1769 CLST     177      ACO      H32      HGA3     0.900000E-01   1.00800           0
      1770 CLST     177      ACO      H33      HGA3     0.900000E-01   1.00800           0
      1771 CLST     178      ACO      O1       OG2D3   -0.480000       15.9994           0
      1772 CLST     178      ACO      C1       CG2O5    0.400000       12.0110           0
      1773 CLST     178      ACO      C2       CG331   -0.230000       12.0110           0
      1774 CLST     178      ACO      C3       CG331   -0.230000       12.0110           0
      1775 CLST     178      ACO      H21      HGA3     0.900000E-01   1.00800           0
      1776 CLST     178      ACO      H22      HGA3     0.900000E-01   1.00800           0
      1777 CLST     178      ACO      H23      HGA3     0.900000E-01   1.00800           0
      1778 CLST     178      ACO      H31      HGA3     0.900000E-01   1.00800           0
      1779 CLST     178      ACO      H32      HGA3     0.900000E-01   1.00800           0
      1780 CLST     178      ACO      H33      HGA3     0.900000E-01   1.00800           0

      1602 !NBOND: bonds
         2         3         2         4         3         5         3         6
         3         7         4         8         4         9         4        10
         1         2        12        13        12        14        13        15
        13        16        13        17        14        18        14        19
        14        20        11        12        22        23        22        24
        23        25        23        26        23        27        24        28
        24        29        24        30        21        22        32        33
        32        34        33        35        33        36        33        37
        34        38        34        39        34        40        31        32
        42        43        42        44        43        45        43        46
        43        47        44        48        44        49        44        50
        41        42        52        53        52        54        53        55
        53        56        53        57        54        58        54        59
        54        60        51        52        62        63        62        64
        63        65        63        66        63        67        64        68
        64        69        64        70        61        62        72        73
        72        74        73        75        73        76        73        77
        74        78        74        79        74        80        71        72
        82        83        82        84        83        85        83        86
        83        87        84        88        84        89        84        90
        81        82        92        93        92        94        93        95
        93        96        93        97        94        98        94        99
        94       100        91        92       102       103       102       104
       103       105       103       106       103       107       104       108
       104       109       104       110       101       102       112       113
       112       114       113       115       113       116       113       117
       114       118       114       119       114       120       111       112
       122       123       122       124       123       125       123       126
       123       127       124       128       124       129       124       130
       121       122       132       133       132       134       133       135
       133       136       133       137       134       138       134       139
       134       140       131       132       142       143       142       144
       143       145       143       146       143       147       144       148
       144       149       144       150       141       142       152       153
       152       154       153       155       153       156       153       157
       154       158       154       159       154       160       151       152
       162       163       162       164       163       165       163       166
       163       167       164       168       164       169       164       170
       161       162       172       173       172       174       173       175
       173       176       173       177       174       178       174       179
       174       180       171       172       182       183       182       184
       183       185       183       186       183       187       184       188
       184       189       184       190       181       182       192       193
       192       194       193       195       193       196       193       197
       194       198       194       199       194       200       191       192
       202       203       202       204       203       205       203       206
       203       207       204       208       204       209       204       210
       201       202       212       213       212       214       213       215
       213       216       213       217       214       218       214       219
       214       220       211       212       222       223       222       224
       223       225       223       226       223       227       224       228
       224       229       224       230       221       222       232       233
       232       234       233       235       233       236       233       237
       234       238       234       239       234       240       231       232
       242       243       242       244       243       245       243       246
       243       247       244       248       244       249       244       250
       241       242       252       253       252       254       253       255
       253       256       253       257       254       258       254       259
       254       260       251       252       262       263       262       264
       263       265       263       266       263       267       264       268
       264       269       264       270       261       262       272       273
       272       274       273       275       273       276       273       277
       274       278       274       279       274       280       271       272
       282       283       282       284       283       285       283       286
       283       287       284       288       284       289       284       290
       281       282       292       293       292       294       293       295
       293       296       293       297       294       298       294       299
       294       300       291       292       302       303       302       304
       303       305       303       306       303       307       304       308
       304       309       304       310       301       302       312       313
       312       314       313       315       313       316       313       317
       314       318       314       319       314       320       311       312
       322       323       322       324       323       325       323       326
       323       327       324       328       324       329       324       330
       321       322       332       333       332       334       333       335
       333       336       333       337       334       338       334       339
       334       340       331       332       342       343       342       344
       343       345       343       346       343       347       344       348
       344       349       344       350       341       342       352       353
       352       354       353       355       353       356       353       357
       354       358       354       359       354       360       351       352
       362       363       362       364       363       365       363       366
       363       367       364       368       364       369       364       370
       361       362       372       373       372       374       373       375
       373       376       373       377       374       378       374       379
       374       380       371       372       382       383       382       384
       383       385       383       386       383       387       384       388
       384       389       384       390       381       382       392       393
       392       394       393       395       393       396       393       397
       394       398       394       399       394       400       391       392
       402       403       402       404       403       405       403       406
       403       407       404       408       404       409       404       410
       401       402       412       413       412       414       413       415
       413       416       413       417       414       418       414       419
       414       420       411       412       422       423       422       424
       423       425       423       426       423       427       424       428
       424       429       424       430       421       422       432       433
       432       434       433       435       433       436       433       437
       434       438       434       439       434       440       431       432
       442       443       442       444       443       445       443       446
       443       447       444       448       444       449       444       450
       441       442       452       453       452       454       453       455
       453       456       453       457       454       458       454       459
       454       460       451       452       462       463       462       464
       463       465       463       466       463       467       464       468
       464       469       464       470       461       462       472       473
       472       474       473       475       473       476       473       477
       474       478       474       479       474       480       471       472
       482       483       482       484       483       485       483       486
       483       487       484       488       484       489       484       490
       481       482       492       493       492       494       493       495
       493       496       493       497       494       498       494       499
       494       500       491       492       502       503       502       504
       503       505       503       506       503       507       504       508
       504       509       504       510       501       502       512       513
       512       514       513       515       513       516       513       517
       514       518       514       519       514       520       511       512
       522       523       522       524       523       525       523       526
       523       527       524       528       524       529       524       530
       521       522       532       533       532       534       533       535
       533       536       533       537       534       538       534       539
       534       540       531       532       542       543       542       544
       543       545       543       546       543       547       544       548
       544       549       544       550       541       542       552       553
       552       554       553       555       553       556       553       557
       554       558       554       559       554       560       551       552
       562       563       562       564       563       565       563       566
       563       567       564       568       564       569       564       570
       561       562       572       573       572       574       573       575
       573       576       573       577       574       578       574       579
       574       580       571       572       582       583       582       584
       583       585       583       586       583       587       584       588
       584       589       584       590       581       582       592       593
       592       594       593       595       593       596       593       597
       594       598       594       599       594       600       591       592
       602       603       602       604       603       605       603       606
       603       607       604       608       604       609       604       610
       601       602       612       613       612       614       613       615
       613       616       613       617       614       618       614       619
       614       620       611       612       622       623       622       624
       623       625       623       626       623       627       624       628
       624       629       624       630       621       622       632       633
       632       634       633       635       633       636       633       637
       634       638       634       639       634       640       631       632
       642       643       642       644       643       645       643       646
       643       647       644       648       644       649       644       650
       641       642       652       653       652       654       653       655
       653       656       653       657       654       658       654       659
       654       660       651       652       662       663       662       664
       663       665       663       666       663       667       664       668
       664       669       664       670       661       662       672       673
       672       674       673       675       673       676       673       677
       674       678       674       679       674       680       671       672
       682       683       682       684       683       685       683       686
       683       687       684       688       684       689       684       690
       681       682       692       693       692       694       693       695
       693       696       693       697       694       698       694       699
       694       700       691       692       702       703       702       704
       703       705       703       706       703       707       704       708
       704       709       704       710       701       702       712       713
       712       714       713       715       713       716       713       717
       714       718       714       719       714       720       711       712
       722       723       722       724       723       725       723       726
       723       727       724       728       724       729       724       730
       721       722       732       733       732       734       733       735
       733       736       733       737       734       738       734       739
       734       740       731       732       742       743       742       744
       743       745       743       746       743       747       744       748
       744       749       744       750       741       742       752       753
       752       754       753       755       753       756       753       757
       754       758       754       759       754       760       751       752
       762       763       762       764       763       765       763       766
       763       767       764       768       764       769       764       770
       761       762       772       773       772       774       773       775
       773       776       773       777       774       778       774       779
       774       780       771       772       782       783       782       784
       783       785       783       786       783       787       784       788
       784       789       784       790       781       782       792       793
       792       794       793       795       793       796       793       797
       794       798       794       799       794       800       791       792
       802       803       802       804       803       805       803       806
       803       807       804       808       804       809       804       810
       801       802       812       813       812       814       813       815
       813       816       813       817       814       818       814       819
       814       820       811       812       822       823       822       824
       823       825       823       826       823       827       824       828
       824       829       824       830       821       822       832       833
       832       834       833       835       833       836       833       837
       834       838       834       839       834       840       831       832
       842       843       842       844       843       845       843       846
       843       847       844       848       844       849       844       850
       841       842       852       853       852       854       853       855
       853       856       853       857       854       858       854       859
       854       860       851       852       862       863       862       864
       863       865       863       866       863       867       864       868
       864       869       864       870       861       862       872       873
       872       874       873       875       873       876       873       877
       874       878       874       879       874       880       871       872
       882       883       882       884       883       885       883       886
       883       887       884       888       884       889       884       890
       881       882       892       893       892       894       893       895
       893       896       893       897       894       898       894       899
       894       900       891       892       902       903       902       904
       903       905       903       906       903       907       904       908
       904       909       904       910       901       902       912       913
       912       914       913       915       913       916       913       917
       914       918       914       919       914       920       911       912
       922       923       922       924       923       925       923       926
       923       927       924       928       924       929       924       930
       921       922       932       933       932       934       933       935
       933       936       933       937       934       938       934       939
       934       940       931       932       942       943       942       944
       943       945       943       946       943       947       944       948
       944       949       944       950       941       942       952       953
       952       954       953       955       953       956       953       957
       954       958       954       959       954       960       951       952
       962       963       962       964       963       965       963       966
       963       967       964       968       964       969       964       970
       961       962       972       973       972       974       973       975
       973       976       973       977       974       978       974       979
       974       980       971       972       982       983       982       984
       983       985       983       986       983       987       984       988
       984       989       984       990       981       982       992       993
       992       994       993       995       993       996       993       997
       994       998       994       999       994      1000       991       992
      1002      1003      1002      1004      1003      1005      1003      1006
      1003      1007      1004      1008      1004      1009      1004      1010
      1001      1002      1012      1013      1012      1014      1013      1015
      1013      1016      1013      1017      1014      1018      1014      1019
      1014      1020      1011      1012      1022      1023      1022      1024
      1023      1025      1023      1026      1023      1027      1024      1028
      1024      1029      1024      1030      1021      1022      1032      1033
      1032      1034      1033      1035      1033      1036      1033      1037
      1034      1038      1034      1039      1034      1040      1031      1032
      1042      1043      1042      1044      1043      1045      1043      1046
      1043      1047      1044      1048      1044      1049      1044      1050
      1041      1042      1052      1053      1052      1054      1053      1055
      1053      1056      1053      1057      1054      1058      1054      1059
      1054      1060      1051      1052      1062      1063      1062      1064
      1063      1065      1063      1066      1063      1067      1064      1068
      1064      1069      1064      1070      1061      1062      1072      1073
      1072      1074      1073      1075      1073      1076      1073      1077
      1074      1078      1074      1079      1074      1080      1071      1072
      1082      1083      1082      1084      1083      1085      1083      1086
      1083      1087      1084      1088      1084      1089      1084      1090
      1081      1082      1092      1093      1092      1094      1093      1095
      1093      1096      1093      1097      1094      1098      1094      1099
      1094      1100      1091      1092      1102      1103      1102      1104
      1103      1105      1103      1106      1103      1107      1104      1108
      1104      1109      1104      1110      1101      1102      1112      1113
      1112      1114      1113      1115      1113      1116      1113      1117
      1114      1118      1114      1119      1114      1120      1111      1112
      1122      1123      1122      1124      1123      1125      1123      1126
      1123      1127      1124      1128      1124      1129      1124      1130
      1121      1122      1132      1133      1132      1134      1133      1135
      1133      1136      1133      1137      1134      1138      1134      1139
      1134      1140      1131      1132      1142      1143      1142      1144
      1143      1145      1143      1146      1143      1147      1144      1148
      1144      1149      1144      1150      1141      1142      1152      1153
      1152      1154      1153      1155      1153      1156      1153      1157
      1154      1158      1154      1159      1154      1160      1151      1152
      1162      1163      1162      1164      1163      1165      1163      1166
      1163      1167      1164      1168      1164      1169      1164      1170
      1161      1162      1172      1173      1172      1174      1173      1175
      1173      1176      1173      1177      1174      1178      1174      1179
      1174      1180      1171      1172      1182      1183      1182      1184
      1183      1185      1183      1186      1183      1187      1184      1188
      1184      1189      1184      1190      1181      1182      1192      1193
      1192      1194      1193      1195      1193      1196      1193      1197
      1194      1198      1194      1199      1194      1200      1191      1192
      1202      1203      1202      1204      1203      1205      1203      1206
      1203      1207      1204      1208      1204      1209      1204      1210
      1201      1202      1212      1213      1212      1214      1213      1215
      1213      1216      1213      1217      1214      1218      1214      1219
      1214      1220      1211      1212      1222      1223      1222      1224
      1223      1225      1223      1226      1223      1227      1224      1228
      1224      1229      1224      1230      1221      1222      1232      1233
      1232      1234      1233      1235      1233      1236      1233      1237
      1234      1238      1234      1239      1234      1240      1231      1232
      1242      1243      1242      1244      1243      1245      1243      1246
      1243      1247      1244      1248      1244      1249      1244      1250
      1241      1242      1252      1253      1252      1254      1253      1255
      1253      1256      1253      1257      1254      1258      1254      1259
      1254      1260      1251      1252      1262      1263      1262      1264
      1263      1265      1263      1266      1263      1267      1264      1268
      1264      1269      1264      1270      1261      1262      1272      1273
      1272      1274      1273      1275      1273      1276      1273      1277
      1274      1278      1274      1279      1274      1280      1271      1272
      1282      1283      1282      1284      1283      1285      1283      1286
      1283      1287      1284      1288      1284      1289      1284      1290
      1281      1282      1292      1293      1292      1294      1293      1295
      1293      1296      1293      1297      1294      1298      1294      1299
      1294      1300      1291      1292      1302      1303      1302      1304
      1303      1305      1303      1306      1303      1307      1304      1308
      1304      1309      1304      1310      1301      1302      1312      1313
      1312      1314      1313      1315      1313      1316      1313      1317
      1314      1318      1314      1319      1314      1320      1311      1312
      1322      1323      1322      1324      1323      1325      1323      1326
      1323      1327      1324      1328      1324      1329      1324      1330
      1321      1322      1332      1333      1332      1334      1333      1335
      1333      1336      1333      1337      1334      1338      1334      1339
      1334      1340      1331      1332      1342      1343      1342      1344
      1343      1345      1343      1346      1343      1347      1344      1348
      1344      1349      1344      1350      1341      1342      1352      1353
      1352      1354      1353      1355      1353      1356      1353      1357
      1354      1358      1354      1359      1354      1360      1351      1352
      1362      1363      1362      1364      1363      1365      1363      1366
      1363      1367      1364      1368      1364      1369      1364      1370
      1361      1362      1372      1373      1372      1374      1373      1375
      1373      1376      1373      1377      1374      1378      1374      1379
      1374      1380      1371      1372      1382      1383      1382      1384
      1383      1385      1383      1386      1383      1387      1384      1388
      1384      1389      1384      1390      1381      1382      1392      1393
      1392      1394      1393      1395      1393      1396      1393      1397
      1394      1398      1394      1399      1394      1400      1391      1392
      1402      1403      1402      1404      1403      1405      1403      1406
      1403      1407      1404      1408      1404      1409      1404      1410
      1401      1402      1412      1413      1412      1414      1413      1415
      1413      1416      1413      1417      1414      1418      1414      1419
      1414      1420      1411      1412      1422      1423      1422      1424
      1423      1425      1423      1426      1423      1427      1424      1428
      1424      1429      1424      1430      1421      1422      1432      1433
      1432      1434      1433      1435      1433      1436      1433      1437
      1434      1438      1434      1439      1434      1440      1431      1432
      1442      1443      1442      1444      1443      1445      1443      1446
      1443      1447      1444      1448      1444      1449      1444      1450
      1441      1442      1452      1453      1452      1454      1453      1455
      1453      1456      1453      1457      1454      1458      1454      1459
      1454      1460      1451      1452      1462      1463      1462      1464
      1463      1465      1463      1466      1463      1467      1464      1468
      1464      1469      1464      1470      1461      1462      1472      1473
      1472      1474      1473      1475      1473      1476      1473      1477
      1474      1478      1474      1479      1474      1480      1471      1472
      1482      1483      1482      1484      1483      1485      1483      1486
      1483      1487      1484      1488      1484      1489      1484      1490
      1481      1482      1492      1493      1492      1494      1493      1495
      1493      1496      1493      1497      1494      1498      1494      1499
      1494      1500      1491      1492      1502      1503      1502      1504
      1503      1505      1503      1506      1503      1507      1504      1508
      1504      1509      1504      1510      1501      1502      1512      1513
      1512      1514      1513      1515      1513      1516      1513      1517
      1514      1518      1514      1519      1514      1520      1511      1512
      1522      1523      1522      1524      1523      1525      1523      1526
      1523      1527      1524      1528      1524      1529      1524      1530
      1521      1522      1532      1533      1532      1534      1533      1535
      1533      1536      1533      1537      1534      1538      1534      1539
      1534      1540      1531      1532      1542      1543      1542      1544
      1543      1545      1543      1546      1543      1547      1544      1548
      1544      1549      1544      1550      1541      1542      1552      1553
      1552      1554      1553      1555      1553      1556      1553      1557
      1554      1558      1554      1559      1554      1560      1551      1552
      1562      1563      1562      1564      1563      1565      1563      1566
      1563      1567      1564      1568      1564      1569      1564      1570
      1561      1562      1572      1573      1572      1574      1573      1575
      1573      1576      1573      1577      1574      1578      1574      1579
      1574      1580      1571      1572      1582      1583      1582      1584
      1583      1585      1583      1586      1583      1587      1584      1588
      1584      1589      1584      1590      1581      1582      1592      1593
      1592      1594      1593      1595      1593      1596      1593      1597
      1594      1598      1594      1599      1594      1600      1591      1592
      1602      1603      1602      1604      1603      1605      1603      1606
      1603      1607      1604      1608      1604      1609      1604      1610
      1601      1602      1612      1613      1612      1614      1613      1615
      1613      1616      1613      1617      1614      1618      1614      1619
      1614      1620      1611      1612      1622      1623      1622      1624
      1623      1625      1623      1626      1623      1627      1624      1628
      1624      1629      1624      1630      1621      1622      1632      1633
      1632      1634      1633      1635      1633      1636      1633      1637
      1634      1638      1634      1639      1634      1640      1631      1632
      1642      1643      1642      1644      1643      1645      1643      1646
      1643      1647      1644      1648      1644      1649      1644      1650
      1641      1642      1652      1653      1652      1654      1653      1655
      1653      1656      1653      1657      1654      1658      1654      1659
      1654      1660      1651      1652      1662      1663      1662      1664
      1663      1665      1663      1666      1663      1667      1664      1668
      1664      1669      1664      1670      1661      1662      1672      1673
      1672      1674      1673      1675      1673      1676      1673      1677
      1674      1678      1674      1679      1674      1680      1671      1672
      1682      1683      1682      1684      1683      1685      1683      1686
      1683      1687      1684      1688      1684      1689      1684      1690
      1681      1682      1692      1693      1692      1694      1693      1695
      1693      1696      1693      1697      1694      1698      1694      1699
      1694      1700      1691      1692      1702      1703      1702      1704
      1703      1705      1703      1706      1703      1707      1704      1708
      1704      1709      1704      1710      1701      1702      1712      1713
      1712      1714      1713      1715      1713      1716      1713      1717
      1714      1718      1714      1719      1714      1720      1711      1712
      1722      1723      1722      1724      1723      1725      1723      1726
      1723      1727      1724      1728      1724      1729      1724      1730
      1721      1722      1732      1733      1732      1734      1733      1735
      1733      1736      1733      1737      1734      1738      1734      1739
      1734      1740      1731      1732      1742      1743      1742      1744
      1743      1745      1743      1746      1743      1747      1744      1748
      1744      1749      1744      1750      1741      1742      1752      1753
      1752      1754      1753      1755      1753      1756      1753      1757
      1754      1758      1754      1759      1754      1760      1751      1752
      1762      1763      1762      1764      1763      1765      1763      1766
      1763      1767      1764      1768      1764      1769      1764      1770
      1761      1762      1772      1773      1772      1774      1773      1775
      1773      1776      1773      1777      1774      1778      1774      1779
      1774      1780      1771      1772

      2670 !NTHETA: angles
         1         2         3         1         2         4         3         2         4
         2         3         5         2         3         6         2         3         7
         5         3         6         5         3         7         6         3         7
         2         4         8         2         4         9         2         4        10
         8         4         9         8         4        10         9         4        10
        11        12        13        11        12        14        13        12        14
        12        13        15        12        13        16        12        13        17
        15        13        16        15        13        17        16        13        17
        12        14        18        12        14        19        12        14        20
        18        14        19        18        14        20        19        14        20
        21        22        23        21        22        24        23        22        24
        22        23        25        22        23        26        22        23        27
        25        23        26        25        23        27        26        23        27
        22        24        28        22        24        29        22        24        30
        28        24        29        28        24        30        29        24        30
        31        32        33        31        32        34        33        32        34
        32        33        35        32        33        36        32        33        37
        35        33        36        35        33        37        36        33        37
        32        34        38        32        34        39        32        34        40
        38        34        39        38        34        40        39        34        40
        41        42        43        41        42        44        43        42        44
        42        43        45        42        43        46        42        43        47
        45        43        46        45        43        47        46        43        47
        42        44        48        42        44        49        42        44        50
        48        44        49        48        44        50        49        44        50
        51        52        53        51        52        54        53        52        54
        52        53        55        52        53        56        52        53        57
        55        53        56        55        53        57        56        53        57
        52        54        58        52        54        59        52        54        60
        58        54        59        58        54        60        59        54        60
        61        62        63        61        62        64        63        62        64
        62        63        65        62        63        66        62        63        67
        65        63        66        65        63        67        66        63        67
        62        64        68        62        64        69        62        64        70
        68        64        69        68        64        70        69        64        70
        71        72        73        71        72        74        73        72        74
        72        73        75        72        73        76        72        73        77
        75        73        76        75        73        77        76        73        77
        72        74        78        72        74        79        72        74        80
        78        74        79        78        74        80        79        74        80
        81        82        83        81        82        84        83        82        84
        82        83        85        82        83        86        82        83        87
        85        83        86        85        83        87        86        83        87
        82        84        88        82        84        89        82        84        90
        88        84        89        88        84        90        89        84        90
        91        92        93        91        92        94        93        92        94
        92        93        95        92        93        96        92        93        97
        95        93        96        95        93        97        96        93        97
        92        94        98        92        94        99        92        94       100
        98        94        99        98        94       100        99        94       100
       101       102       103       101       102       104       103       102       104
       102       103       105       102       103       106       102       103       107
       105       103       106       105       103       107       106       103       107
       102       104       108       102       104       109       102       104       110
       108       104       109       108       104       110       109       104       110
       111       112       113       111       112       114       113       112       114
       112       113       115       112       113       116       112       113       117
       115       113       116       115       113       117       116       113       117
       112       114       118       112       114       119       112       114       120
       118       114       119       118       114       120       119       114       120
       121       122       123       121       122       124       123       122       124
       122       123       125       122       123       126       122       123       127
       125       123       126       125       123       127       126       123       127
       122       124       128       122       124       129       122       124       130
       128       124       129       128       124       130       129       124       130
       131       132       133       131       132       134       133       132       134
       132       133       135       132       133       136       132       133       137
       135       133       136       135       133       137       136       133       137
       132       134       138       132       134       139       132       134       140
       138       134       139       138       134       140       139       134       140
       141       142       143       141       142       144       143       142       144
       142       143       145       142       143       146       142       143       147
       145       143       146       145       143       147       146       143       147
       142       144       148       142       144       149       142       144       150
       148       144       149       148       144       150       149       144       150
       151       152       153       151       152       154       153       152       154
       152       153       155       152       153       156       152       153       157
       155       153       156       155       153       157       156       153       157
       152       154       158       152       154       159       152       154       160
       158       154       159       158       154       160       159       154       160
       161       162       163       161       162       164       163       162       164
       162       163       165       162       163       166       162       163       167
       165       163       166       165       163       167       166       163       167
       162       164       168       162       164       169       162       164       170
       168       164       169       168       164       170       169       164       170
       171       172       173       171       172       174       173       172       174
       172       173       175       172       173       176       172       173       177
       175       173       176       175       173       177       176       173       177
       172       174       178       172       174       179       172       174       180
       178       174       179       178       174       180       179       174       180
       181       182       183       181       182       184       183       182       184
       182       183       185       182       183       186       182       183       187
       185       183       186       185       183       187       186       183       187
       182       184       188       182       184       189       182       184       190
       188       184       189       188       184       190       189       184       190
       191       192       193       191       192       194       193       192       194
       192       193       195       192       193       196       192       193       197
       195       193       196       195       193       197       196       193       197
       192       194       198       192       194       199       192       194       200
       198       194       199       198       194       200       199       194       200
       201       202       203       201       202       204       203       202       204
       202       203       205       202       203       206       202       203       207
       205       203       206       205       203       207       206       203       207
       202       204       208       202       204       209       202       204       210
       208       204       209       208       204       210       209       204       210
       211       212       213       211       212       214       213       212       214
       212       213       215       212       213       216       212       213       217
       215       213       216       215       213       217       216       213       217
       212       214       218       212       214       219       212       214       220
       218       214       219       218       214       220       219       214       220
       221       222       223       221       222       224       223       222       224
       222       223       225       222       223       226       222       223       227
       225       223       226       225       223       227       226       223       227
       222       224       228       222       224       229       222       224       230
       228       224       229       228       224       230       229       224       230
       231       232       233       231       232       234       233       232       234
       232       233       235       232       233       236       232       233       237
       235       233       236       235       233       237       236       233       237
       232       234       238       232       234       239       232       234       240
       238       234       239       238       234       240       239       234       240
       241       242       243       241       242       244       243       242       244
       242       243       245       242       243       246       242       243       247
       245       243       246       245       243       247       246       243       247
       242       244       248       242       244       249       242       244       250
       248       244       249       248       244       250       249       244       250
       251       252       253       251       252       254       253       252       254
       252       253       255       252       253       256       252       253       257
       255       253       256       255       253       257       256       253       257
       252       254       258       252       254       259       252       254       260
       258       254       259       258       254       260       259       254       260
       261       262       263       261       262       264       263       262       264
       262       263       265       262       263       266       262       263       267
       265       263       266       265       263       267       266       263       267
       262       264       268       262       264       269       262       264       270
       268       264       269       268       264       270       269       264       270
       271       272       273       271       272       274       273       272       274
       272       273       275       272       273       276       272       273       277
       275       273       276       275       273       277       276       273       277
       272       274       278       272       274       279       272       274       280
       278       274       279       278       274       280       279       274       280
       281       282       283       281       282       284       283       282       284
       282       283       285       282       283       286       282       283       287
       285       283       286       285       283       287       286       283       287
       282       284       288       282       284       289       282       284       290
       288       284       289       288       284       290       289       284       290
       291       292       293       291       292       294       293       292       294
       292       293       295       292       293       296       292       293       297
       295       293       296       295       293       297       296       293       297
       292       294       298       292       294       299       292       294       300
       298       294       299       298       294       300       299       294       300
       301       302       303       301       302       304       303       302       304
       302       303       305       302       303       306       302       303       307
       305       303       306       305       303       307       306       303       307
       302       304       308       302       304       309       302       304       310
       308       304       309       308       304       310       309       304       310
       311       312       313       311       312       314       313       312       314
       312       313       315       312       313       316       312       313       317
       315       313       316       315       313       317       316       313       317
       312       314       318       312       314       319       312       314       320
       318       314       319       318       314       320       319       314       320
       321       322       323       321       322       324       323       322       324
       322       323       325       322       323       326       322       323       327
       325       323       326       325       323       327       326       323       327
       322       324       328       322       324       329       322       324       330
       328       324       329       328       324       330       329       324       330
       331       332       333       331       332       334       333       332       334
       332       333       335       332       333       336       332       333       337
       335       333       336       335       333       337       336       333       337
       332       334       338       332       334       339       332       334       340
       338       334       339       338       334       340       339       334       340
       341       342       343       341       342       344       343       342       344
       342       343       345       342       343       346       342       343       347
       345       343       346       345       343       347       346       343       347
       342       344       348       342       344       349       342       344       350
       348       344       349       348       344       350       349       344       350
       351       352       353       351       352       354       353       352       354
       352       353       355       352       353       356       352       353       357
       355       353       356       355       353       357       356       353       357
       352       354       358       352       354       359       352       354       360
       358       354       359       358       354       360       359       354       360
       361       362       363       361       362       364       363       362       364
       362       363       365       362       363       366       362       363       367
       365       363       366       365       363       367       366       363       367
       362       364       368       362       364       369       362       364       370
       368       364       369       368       364       370       369       364       370
       371       372       373       371       372       374       373       372       374
       372       373       375       372       373       376       372       373       377
       375       373       376       375       373       377       376       373       377
       372       374       378       372       374       379       372       374       380
       378       374       379       378       374       380       379       374       380
       381       382       383       381       382       384       383       382       384
       382       383       385       382       383       386       382       383       387
       385       383       386       385       383       387       386       383       387
       382       384       388       382       384       389       382       384       390
       388       384       389       388       384       390       389       384       390
       391       392       393       391       392       394       393       392       394
       392       393       395       392       393       396       392       393       397
       395       393       396       395       393       397       396       393       397
       392       394       398       392       394       399       392       394       400
       398       394       399       398       394       400       399       394       400
       401       402       403       401       402       404       403       402       404
       402       403       405       402       403       406       402       403       407
       405       403       406       405       403       407       406       403       407
       402       404       408       402       404       409       402       404       410
       408       404       409       408       404       410       409       404       410
       411       412       413       411       412       414       413       412       414
       412       413       415       412       413       416       412       413       417
       415       413       416       415       413       417       416       413       417
       412       414       418       412       414       419       412       414       420
       418       414       419       418       414       420       419       414       420
       421       422       423       421       422       424       423       422       424
       422       423       425       422       423       426       422       423       427
       425       423       426       425       423       427       426       423       427
       422       424       428       422       424       429       422       424       430
       428       424       429       428       424       430       429       424       430
       431       432       433       431       432       434       433       432       434
       432       433       435       432       433       436       432       433       437
       435       433       436       435       433       437       436       433       437
       432       434       438       432       434       439       432       434       440
       438       434       439       438       434       440       439       434       440
       441       442       443       441       442       444       443       442       444
       442       443       445       442       443       446       442       443       447
       445       443       446       445       443       447       446       443       447
       442       444       448       442       444       449       442       444       450
       448       444       449       448       444       450       449       444       450
       451       452       453       451       452       454       453       452       454
       452       453       455       452       453       456       452       453       457
       455       453       456       455       453       457       456       453       457
       452       454       458       452       454       459       452       454       460
       458       454       459       458       454       460       459       454       460
       461       462       463       461       462       464       463       462       464
       462       463       465       462       463       466       462       463       467
       465       463       466       465       463       467       466       463       467
       462       464       468       462       464       469       462       464       470
       468       464       469       468       464       470       469       464       470
       471       472       473       471       472       474       473       472       474
       472       473       475       472       473       476       472       473       477
       475       473       476       475       473       477       476       473       477
       472       474       478       472       474       479       472       474       480
       478       474       479       478       474       480       479       474       480
       481       482       483       481       482       484       483       482       484
       482       483       485       482       483       486       482       483       487
       485       483       486       485       483       487       486       483       487
       482       484       488       482       484       489       482       484       490
       488       484       489       488       484       490       489       484       490
       491       492       493       491       492       494       493       492       494
       492       493       495       492       493       496       492       493       497
       495       493       496       495       493       497       496       493       497
       492       494       498       492       494       499       492       494       500
       498       494       499       498       494       500       499       494       500
       501       502       503       501       502       504       503       502       504
       502       503       505       502       503       506       502       503       507
       505       503       506       505       503       507       506       503       507
       502       504       508       502       504       509       502       504       510
       508       504       509       508       504       510       509       504       510
       511       512       513       511       512       514       513       512       514
       512       513       515       512       513       516       512       513       517
       515       513       516       515       513       517       516       513       517
       512       514       518       512       514       519       512       514       520
       518       514       519       518       514       520       519       514       520
       521       522       523       521       522       524       523       522       524
       522       523       525       522       523       526       522       523       527
       525       523       526       525       523       527       526       523       527
       522       524       528       522       524       529       522       524       530
       528       524       529       528       524       530       529       524       530
       531       532       533       531       532       534       533       532       534
       532       533       535       532       533       536       532       533       537
       535       533       536       535       533       537       536       533       537
       532       534       538       532       534       539       532       534       540
       538       534       539       538       534       540       539       534       540
       541       542       543       541       542       544       543       542       544
       542       543       545       542       543       546       542       543       547
       545       543       546       545       543       547       546       543       547
       542       544       548       542       544       549       542       544       550
       548       544       549       548       544       550       549       544       550
       551       552       553       551       552       554       553       552       554
       552       553       555       552       553       556       552       553       557
       555       553       556       555       553       557       556       553       557
       552       554       558       552       554       559       552       554       560
       558       554       559       558       554       560       559       554       560
       561       562       563       561       562       564       563       562       564
       562       563       565       562       563       566       562       563       567
       565       563       566       565       563       567       566       563       567
       562       564       568       562       564       569       562       564       570
       568       564       569       568       564       570       569       564       570
       571       572       573       571       572       574       573       572       574
       572       573       575       572       573       576       572       573       577
       575       573       576       575       573       577       576       573       577
       572       574       578       572       574       579       572       574       580
       578       574       579       578       574       580       579       574       580
       581       582       583       581       582       584       583       582       584
       582       583       585       582       583       586       582       583       587
       585       583       586       585       583       587       586       583       587
       582       584       588       582       584       589       582       584       590
       588       584       589       588       584       590       589       584       590
       591       592       593       591       592       594       593       592       594
       592       593       595       592       593       596       592       593       597
       595       593       596       595       593       597       596       593       597
       592       594       598       592       594       599       592       594       600
       598       594       599       598       594       600       599       594       600
       601       602       603       601       602       604       603       602       604
       602       603       605       602       603       606       602       603       607
       605       603       606       605       603       607       606       603       607
       602       604       608       602       604       609       602       604       610
       608       604       609       608       604       610       609       604       610
       611       612       613       611       612       614       613       612       614
       612       613       615       612       613       616       612       613       617
       615       613       616       615       613       617       616       613       617
       612       614       618       612       614       619       612       614       620
       618       614       619       618       614       620       619       614       620
       621       622       623       621       622       624       623       622       624
       622       623       625       622       623       626       622       623       627
       625       623       626       625       623       627       626       623       627
       622       624       628       622       624       629       622       624       630
       628       624       629       628       624       630       629       624       630
       631       632       633       631       632       634       633       632       634
       632       633       635       632       633       636       632       633       637
       635       633       636       635       633       637       636       633       637
       632       634       638       632       634       639       632       634       640
       638       634       639       638       634       640       639       634       640
       641       642       643       641       642       644       643       642       644
       642       643       645       642       643       646       642       643       647
       645       643       646       645       643       647       646       643       647
       642       644       648       642       644       649       642       644       650
       648       644       649       648       644       650       649       644       650
       651       652       653       651       652       654       653       652       654
       652       653       655       652       653       656       652       653       657
       655       653       656       655       653       657       656       653       657
       652       654       658       652       654       659       652       654       660
       658       654       659       658       654       660       659       654       660
       661       662       663       661       662       664       663       662       664
       662       663       665       662       663       666       662       663       667
       665       663       666       665       663       667       666       663       667
       662       664       668       662       664       669       662       664       670
       668       664       669       668       664       670       669       664       670
       671       672       673       671       672       674       673       672       674
       672       673       675       672       673       676       672       673       677
       675       673       676       675       673       677       676       673       677
       672       674       678       672       674       679       672       674       680
       678       674       679       678       674       680       679       674       680
       681       682       683       681       682       684       683       682       684
       682       683       685       682       683       686       682       683       687
       685       683       686       685       683       687       686       683       687
       682       684       688       682       684       689       682       684       690
       688       684       689       688       684       690       689       684       690
       691       692       693       691       692       694       693       692       694
       692       693       695       692       693       696       692       693       697
       695       693       696       695       693       697       696       693       697
       692       694       698       692       694       699       692       694       700
       698       694       699       698       694       700       699       694       700
       701       702       703       701       702       704       703       702       704
       702       703       705       702       703       706       702       703       707
       705       703       706       705       703       707       706       703       707
       702       704       708       702       704       709       702       704       710
       708       704       709       708       704       710       709       704       710
       711       712       713       711       712       714       713       712       714
       712       713       715       712       713       716       712       713       717
       715       713       716       715       713       717       716       713       717
       712       714       718       712       714       719       712       714       720
       718       714       719       718       714       720       719       714       720
       721       722       723       721       722       724       723       722       724
       722       723       725       722       723       726       722       723       727
       725       723       726       725       723       727       726       723       727
       722       724       728       722       724       729       722       724       730
       728       724       729       728       724       730       729       724       730
       731       732       733       731       732       734       733       732       734
       732       733       735       732       733       736       732       733       737
       735       733       736       735       733       737       736       733       737
       732       734       738       732       734       739       732       734       740
       738       734       739       738       734       740       739       734       740
       741       742       743       741       742       744       743       742       744
       742       743       745       742       743       746       742       743       747
       745       743       746       745       743       747       746       743       747
       742       744       748       742       744       749       742       744       750
       748       744       749       748       744       750       749       744       750
       751       752       753       751       752       754       753       752       754
       752       753       755       752       753       756       752       753       757
       755       753       756       755       753       757       756       753       757
       752       754       758       752       754       759       752       754       760
       758       754       759       758       754       760       759       754       760
       761       762       763       761       762       764       763       762       764
       762       763       765       762       763       766       762       763       767
       765       763       766       765       763       767       766       763       767
       762       764       768       762       764       769       762       764       770
       768       764       769       768       764       770       769       764       770
       771       772       773       771       772       774       773       772       774
       772       773       775       772       773       776       772       773       777
       775       773       776       775       773       777       776       773       777
       772       774       778       772       774       779       772       774       780
       778       774       779       778       774       780       779       774       780
       781       782       783       781       782       784       783       782       784
       782       783       785       782       783       786       782       783       787
       785       783       786       785       783       787       786       783       787
       782       784       788       782       784       789       782       784       790
       788       784       789       788       784       790       789       784       790
       791       792       793       791       792       794       793       792       794
       792       793       795       792       793       796       792       793       797
       795       793       796       795       793       797       796       793       797
       792       794       798       792       794       799       792       794       800
       798       794       799       798       794       800       799       794       800
       801       802       803       801       802       804       803       802       804
       802       803       805       802       803       806       802       803       807
       805       803       806       805       803       807       806       803       807
       802       804       808       802       804       809       802       804       810
       808       804       809       808       804       810       809       804       810
       811       812       813       811       812       814       813       812       814
       812       813       815       812       813       816       812       813       817
       815       813       816       815       813       817       816       813       817
       812       814       818       812       814       819       812       814       820
       818       814       819       818       814       820       819       814       820
       821       822       823       821       822       824       823       822       824
       822       823       825       822       823       826       822       823       827
       825       823       826       825       823       827       826       823       827
       822       824       828       822       824       829       822       824       830
       828       824       829       828       824       830       829       824       830
       831       832       833       831       832       834       833       832       834
       832       833       835       832       833       836       832       833       837
       835       833       836       835       833       837       836       833       837
       832       834       838       832       834       839       832       834       840
       838       834       839       838       834       840       839       834       840
       841       842       843       841       842       844       843       842       844
       842       843       845       842       843       846       842       843       847
       845       843       846       845       843       847       846       843       847
       842       844       848       842       844       849       842       844       850
       848       844       849       848       844       850       849       844       850
       851       852       853       851       852       854       853       852       854
       852       853       855       852       853       856       852       853       857
       855       853       856       855       853       857       856       853       857
       852       854       858       852       854       859       852       854       860
       858       854       859       858       854       860       859       854       860
       861       862       863       861       862       864       863       862       864
       862       863       865       862       863       866       862       863       867
       865       863       866       865       863       867       866       863       867
       862       864       868       862       864       869       862       864       870
       868       864       869       868       864       870       869       864       870
       871       872       873       871       872       874       873       872       874
       872       873       875       872       873       876       872       873       877
       875       873       876       875       873       877       876       873       877
       872       874       878       872       874       879       872       874       880
       878       874       879       878       874       880       879       874       880
       881       882       883       881       882       884       883       882       884
       882       883       885       882       883       886       882       883       887
       885       883       886       885       883       887       886       883       887
       882       884       888       882       884       889       882       884       890
       888       884       889       888       884       890       889       884       890
       891       892       893       891       892       894       893       892       894
       892       893       895       892       893       896       892       893       897
       895       893       896       895       893       897       896       893       897
       892       894       898       892       894       899       892       894       900
       898       894       899       898       894       900       899       894       900
       901       902       903       901       902       904       903       902       904
       902       903       905       902       903       906       902       903       907
       905       903       906       905       903       907       906       903       907
       902       904       908       902       904       909       902       904       910
       908       904       909       908       904       910       909       904       910
       911       912       913       911       912       914       913       912       914
       912       913       915       912       913       916       912       913       917
       915       913       916       915       913       917       916       913       917
       912       914       918       912       914       919       912       914       920
       918       914       919       918       914       920       919       914       920
       921       922       923       921       922       924       923       922       924
       922       923       925       922       923       926       922       923       927
       925       923       926       925       923       927       926       923       927
       922       924       928       922       924       929       922       924       930
       928       924       929       928       924       930       929       924       930
       931       932       933       931       932       934       933       932       934
       932       933       935       932       933       936       932       933       937
       935       933       936       935       933       937       936       933       937
       932       934       938       932       934       939       932       934       940
       938       934       939       938       934       940       939       934       940
       941       942       943       941       942       944       943       942       944
       942       943       945       942       943       946       942       943       947
       945       943       946       945       943       947       946       943       947
       942       944       948       942       944       949       942       944       950
       948       944       949       948       944       950       949       944       950
       951       952       953       951       952       954       953       952       954
       952       953       955       952       953       956       952       953       957
       955       953       956       955       953       957       956       953       957
       952       954       958       952       954       959       952       954       960
       958       954       959       958       954       960       959       954       960
       961       962       963       961       962       964       963       962       964
       962       963       965       962       963       966       962       963       967
       965       963       966       965       963       967       966       963       967
       962       964       968       962       964       969       962       964       970
       968       964       969       968       964       970       969       964       970
       971       972       973       971       972       974       973       972       974
       972       973       975       972       973       976       972       973       977
       975       973       976       975       973       977       976       973       977
       972       974       978       972       974       979       972       974       980
       978       974       979       978       974       980       979       974       980
       981       982       983       981       982       984       983       982       984
       982       983       985       982       983       986       982       983       987
       985       983       986       985       983       987       986       983       987
       982       984       988       982       984       989       982       984       990
       988       984       989       988       984       990       989       984       990
       991       992       993       991       992       994       993       992       994
       992       993       995       992       993       996       992       993       997
       995       993       996       995       993       997       996       993       997
       992       994       998       992       994       999       992       994      1000
       998       994       999       998       994      1000       999       994      1000
      1001      1002      1003      1001      1002      1004      1003      1002      1004
      1002      1003      1005      1002      1003      1006      1002      1003      1007
      1005      1003      1006      1005      1003      1007      1006      1003      1007
      1002      1004      1008      1002      1004      1009      1002      1004      1010
      1008      1004      1009      1008      1004      1010      1009      1004      1010
      1011      1012      1013      1011      1012      1014      1013      1012      1014
      1012      1013      1015      1012      1013      1016      1012      1013      1017
      1015      1013      1016      1015      1013      1017      1016      1013      1017
      1012      1014      1018      1012      1014      1019      1012      1014      1020
      1018      1014      1019      1018      1014      1020      1019      1014      1020
      1021      1022      1023      1021      1022      1024      1023      1022      1024
      1022      1023      1025      1022      1023      1026      1022      1023      1027
      1025      1023      1026      1025      1023      1027      1026      1023      1027
      1022      1024      1028      1022      1024      1029      1022      1024      1030
      1028      1024      1029      1028      1024      1030      1029      1024      1030
      1031      1032      1033      1031      1032      1034      1033      1032      1034
      1032      1033      1035      1032      1033      1036      1032      1033      1037
      1035      1033      1036      1035      1033      1037      1036      1033      1037
      1032      1034      1038      1032      1034      1039      1032      1034      1040
      1038      1034      1039      1038      1034      1040      1039      1034      1040
      1041      1042      1043      1041      1042      1044      1043      1042      1044
      1042      1043      1045      1042      1043      1046      1042      1043      1047
      1045      1043      1046      1045      1043      1047      1046      1043      1047
      1042      1044      1048      1042      1044      1049      1042      1044      1050
      1048      1044      1049      1048      1044      1050      1049      1044      1050
      1051      1052      1053      1051      1052      1054      1053      1052      1054
      1052      1053      1055      1052      1053      1056      1052      1053      1057
      1055      1053      1056      1055      1053      1057      1056      1053      1057
      1052      1054      1058      1052      1054      1059      1052      1054      1060
      1058      1054      1059      1058      1054      1060      1059      1054      1060
      1061      1062      1063      1061      1062      1064      1063      1062      1064
      1062      1063      1065      1062      1063      1066      1062      1063      1067
      1065      1063      1066      1065      1063      1067      1066      1063      1067
      1062      1064      1068      1062      1064      1069      1062      1064      1070
      1068      1064      1069      1068      1064      1070      1069      1064      1070
      1071      1072      1073      1071      1072      1074      1073      1072      1074
      1072      1073      1075      1072      1073      1076      1072      1073      1077
      1075      1073      1076      1075      1073      1077      1076      1073      1077
      1072      1074      1078      1072      1074      1079      1072      1074      1080
      1078      1074      1079      1078      1074      1080      1079      1074      1080
      1081      1082      1083      1081      1082      1084      1083      1082      1084
      1082      1083      1085      1082      1083      1086      1082      1083      1087
      1085      1083      1086      1085      1083      1087      1086      1083      1087
      1082      1084      1088      1082      1084      1089      1082      1084      1090
      1088      1084      1089      1088      1084      1090      1089      1084      1090
      1091      1092      1093      1091      1092      1094      1093      1092      1094
      1092      1093      1095      1092      1093      1096      1092      1093      1097
      1095      1093      1096      1095      1093      1097      1096      1093      1097
      1092      1094      1098      1092      1094      1099      1092      1094      1100
      1098      1094      1099      1098      1094      1100      1099      1094      1100
      1101      1102      1103      1101      1102      1104      1103      1102      1104
      1102      1103      1105      1102      1103      1106      1102      1103      1107
      1105      1103      1106      1105      1103      1107      1106      1103      1107
      1102      1104      1108      1102      1104      1109      1102      1104      1110
      1108      1104      1109      1108      1104      1110      1109      1104      1110
      1111      1112      1113      1111      1112      1114      1113      1112      1114
      1112      1113      1115      1112      1113      1116      1112      1113      1117
      1115      1113      1116      1115      1113      1117      1116      1113      1117
      1112      1114      1118      1112      1114      1119      1112      1114      1120
      1118      1114      1119      1118      1114      1120      1119      1114      1120
      1121      1122      1123      1121      1122      1124      1123      1122      1124
      1122      1123      1125      1122      1123      1126      1122      1123      1127
      1125      1123      1126      1125      1123      1127      1126      1123      1127
      1122      1124      1128      1122      1124      1129      1122      1124      1130
      1128      1124      1129      1128      1124      1130      1129      1124      1130
      1131      1132      1133      1131      1132      1134      1133      1132      1134
      1132      1133      1135      1132      1133      1136      1132      1133      1137
      1135      1133      1136      1135      1133      1137      1136      1133      1137
      1132      1134      1138      1132      1134      1139      1132      1134      1140
      1138      1134      1139      1138      1134      1140      1139      1134      1140
      1141      1142      1143      1141      1142      1144      1143      1142      1144
      1142      1143      1145      1142      1143      1146      1142      1143      1147
      1145      1143      1146      1145      1143      1147      1146      1143      1147
      1142      1144      1148      1142      1144      1149      1142      1144      1150
      1148      1144      1149      1148      1144      1150      1149      1144      1150
      1151      1152      1153      1151      1152      1154      1153      1152      1154
      1152      1153      1155      1152      1153      1156      1152      1153      1157
      1155      1153      1156      1155      1153      1157      1156      1153      1157
      1152      1154      1158      1152      1154      1159      1152      1154      1160
      1158      1154      1159      1158      1154      1160      1159      1154      1160
      1161      1162      1163      1161      1162      1164      1163      1162      1164
      1162      1163      1165      1162      1163      1166      1162      1163      1167
      1165      1163      1166      1165      1163      1167      1166      1163      1167
      1162      1164      1168      1162      1164      1169      1162      1164      1170
      1168      1164      1169      1168      1164      1170      1169      1164      1170
      1171      1172      1173      1171      1172      1174      1173      1172      1174
      1172      1173      1175      1172      1173      1176      1172      1173      1177
      1175      1173      1176      1175      1173      1177      1176      1173      1177
      1172      1174      1178      1172      1174      1179      1172      1174      1180
      1178      1174      1179      1178      1174      1180      1179      1174      1180
      1181      1182      1183      1181      1182      1184      1183      1182      1184
      1182      1183      1185      1182      1183      1186      1182      1183      1187
      1185      1183      1186      1185      1183      1187      1186      1183      1187
      1182      1184      1188      1182      1184      1189      1182      1184      1190
      1188      1184      1189      1188      1184      1190      1189      1184      1190
      1191      1192      1193      1191      1192      1194      1193      1192      1194
      1192      1193      1195      1192      1193      1196      1192      1193      1197
      1195      1193      1196      1195      1193      1197      1196      1193      1197
      1192      1194      1198      1192      1194      1199      1192      1194      1200
      1198      1194      1199      1198      1194      1200      1199      1194      1200
      1201      1202      1203      1201      1202      1204      1203      1202      1204
      1202      1203      1205      1202      1203      1206      1202      1203      1207
      1205      1203      1206      1205      1203      1207      1206      1203      1207
      1202      1204      1208      1202      1204      1209      1202      1204      1210
      1208      1204      1209      1208      1204      1210      1209      1204      1210
      1211      1212      1213      1211      1212      1214      1213      1212      1214
      1212      1213      1215      1212      1213      1216      1212      1213      1217
      1215      1213      1216      1215      1213      1217      1216      1213      1217
      1212      1214      1218      1212      1214      1219      1212      1214      1220
      1218      1214      1219      1218      1214      1220      1219      1214      1220
      1221      1222      1223      1221      1222      1224      1223      1222      1224
      1222      1223      1225      1222      1223      1226      1222      1223      1227
      1225      1223      1226      1225      1223      1227      1226      1223      1227
      1222      1224      1228      1222      1224      1229      1222      1224      1230
      1228      1224      1229      1228      1224      1230      1229      1224      1230
      1231      1232      1233      1231      1232      1234      1233      1232      1234
      1232      1233      1235      1232      1233      1236      1232      1233      1237
      1235      1233      1236      1235      1233      1237      1236      1233      1237
      1232      1234      1238      1232      1234      1239      1232      1234      1240
      1238      1234      1239      1238      1234      1240      1239      1234      1240
      1241      1242      1243      1241      1242      1244      1243      1242      1244
      1242      1243      1245      1242      1243      1246      1242      1243      1247
      1245      1243      1246      1245      1243      1247      1246      1243      1247
      1242      1244      1248      1242      1244      1249      1242      1244      1250
      1248      1244      1249      1248      1244      1250      1249      1244      1250
      1251      1252      1253      1251      1252      1254      1253      1252      1254
      1252      1253      1255      1252      1253      1256      1252      1253      1257
      1255      1253      1256      1255      1253      1257      1256      1253      1257
      1252      1254      1258      1252      1254      1259      1252      1254      1260
      1258      1254      1259      1258      1254      1260      1259      1254      1260
      1261      1262      1263      1261      1262      1264      1263      1262      1264
      1262      1263      1265      1262      1263      1266      1262      1263      1267
      1265      1263      1266      1265      1263      1267      1266      1263      1267
      1262      1264      1268      1262      1264      1269      1262      1264      1270
      1268      1264      1269      1268      1264      1270      1269      1264      1270
      1271      1272      1273      1271      1272      1274      1273      1272      1274
      1272      1273      1275      1272      1273      1276      1272      1273      1277
      1275      1273      1276      1275      1273      1277      1276      1273      1277
      1272      1274      1278      1272      1274      1279      1272      1274      1280
      1278      1274      1279      1278      1274      1280      1279      1274      1280
      1281      1282      1283      1281      1282      1284      1283      1282      1284
      1282      1283      1285      1282      1283      1286      1282      1283      1287
      1285      1283      1286      1285      1283      1287      1286      1283      1287
      1282      1284      1288      1282      1284      1289      1282      1284      1290
      1288      1284      1289      1288      1284      1290      1289      1284      1290
      1291      1292      1293      1291      1292      1294      1293      1292      1294
      1292      1293      1295      1292      1293      1296      1292      1293      1297
      1295      1293      1296      1295      1293      1297      1296      1293      1297
      1292      1294      1298      1292      1294      1299      1292      1294      1300
      1298      1294      1299      1298      1294      1300      1299      1294      1300
      1301      1302      1303      1301      1302      1304      1303      1302      1304
      1302      1303      1305      1302      1303      1306      1302      1303      1307
      1305      1303      1306      1305      1303      1307      1306      1303      1307
      1302      1304      1308      1302      1304      1309      1302      1304      1310
      1308      1304      1309      1308      1304      1310      1309      1304      1310
      1311      1312      1313      1311      1312      1314      1313      1312      1314
      1312      1313      1315      1312      1313      1316      1312      1313      1317
      1315      1313      1316      1315      1313      1317      1316      1313      1317
      1312      1314      1318      1312      1314      1319      1312      1314      1320
      1318      1314      1319      1318      1314      1320      1319      1314      1320
      1321      1322      1323      1321      1322      1324      1323      1322      1324
      1322      1323      1325      1322      1323      1326      1322      1323      1327
      1325      1323      1326      1325      1323      1327      1326      1323      1327
      1322      1324      1328      1322      1324      1329      1322      1324      1330
      1328      1324      1329      1328      1324      1330      1329      1324      1330
      1331      1332      1333      1331      1332      1334      1333      1332      1334
      1332      1333      1335      1332      1333      1336      1332      1333      1337
      1335      1333      1336      1335      1333      1337      1336      1333      1337
      1332      1334      1338      1332      1334      1339      1332      1334      1340
      1338      1334      1339      1338      1334      1340      1339      1334      1340
      1341      1342      1343      1341      1342      1344      1343      1342      1344
      1342      1343      1345      1342      1343      1346      1342      1343      1347
      1345      1343      1346      1345      1343      1347      1346      1343      1347
      1342      1344      1348      1342      1344      1349      1342      1344      1350
      1348      1344      1349      1348      1344      1350      1349      1344      1350
      1351      1352      1353      1351      1352      1354      1353      1352      1354
      1352      1353      1355      1352      1353      1356      1352      1353      1357
      1355      1353      1356      1355      1353      1357      1356      1353      1357
      1352      1354      1358      1352      1354      1359      1352      1354      1360
      1358      1354      1359      1358      1354      1360      1359      1354      1360
      1361      1362      1363      1361      1362      1364      1363      1362      1364
      1362      1363      1365      1362      1363      1366      1362      1363      1367
      1365      1363      1366      1365      1363      1367      1366      1363      1367
      1362      1364      1368      1362      1364      1369      1362      1364      1370
      1368      1364      1369      1368      1364      1370      1369      1364      1370
      1371      1372      1373      1371      1372      1374      1373      1372      1374
      1372      1373      1375      1372      1373      1376      1372      1373      1377
      1375      1373      1376      1375      1373      1377      1376      1373      1377
      1372      1374      1378      1372      1374      1379      1372      1374      1380
      1378      1374      1379      1378      1374      1380      1379      1374      1380
      1381      1382      1383      1381      1382      1384      1383      1382      1384
      1382      1383      1385      1382      1383      1386      1382      1383      1387
      1385      1383      1386      1385      1383      1387      1386      1383      1387
      1382      1384      1388      1382      1384      1389      1382      1384      1390
      1388      1384      1389      1388      1384      1390      1389      1384      1390
      1391      1392      1393      1391      1392      1394      1393      1392      1394
      1392      1393      1395      1392      1393      1396      1392      1393      1397
      1395      1393      1396      1395      1393      1397      1396      1393      1397
      1392      1394      1398      1392      1394      1399      1392      1394      1400
      1398      1394      1399      1398      1394      1400      1399      1394      1400
      1401      1402      1403      1401      1402      1404      1403      1402      1404
      1402      1403      1405      1402      1403      1406      1402      1403      1407
      1405      1403      1406      1405      1403      1407      1406      1403      1407
      1402      1404      1408      1402      1404      1409      1402      1404      1410
      1408      1404      1409      1408      1404      1410      1409      1404      1410
      1411      1412      1413      1411      1412      1414      1413      1412      1414
      1412      1413      1415      1412      1413      1416      1412      1413      1417
      1415      1413      1416      1415      1413      1417      1416      1413      1417
      1412      1414      1418      1412      1414      1419      1412      1414      1420
      1418      1414      1419      1418      1414      1420      1419      1414      1420
      1421      1422      1423      1421      1422      1424      1423      1422      1424
      1422      1423      1425      1422      1423      1426      1422      1423      1427
      1425      1423      1426      1425      1423      1427      1426      1423      1427
      1422      1424      1428      1422      1424      1429      1422      1424      1430
      1428      1424      1429      1428      1424      1430      1429      1424      1430
      1431      1432      1433      1431      1432      1434      1433      1432      1434
      1432      1433      1435      1432      1433      1436      1432      1433      1437
      1435      1433      1436      1435      1433      1437      1436      1433      1437
      1432      1434      1438      1432      1434      1439      1432      1434      1440
      1438      1434      1439      1438      1434      1440      1439      1434      1440
      1441      1442      1443      1441      1442      1444      1443      1442      1444
      1442      1443      1445      1442      1443      1446      1442      1443      1447
      1445      1443      1446      1445      1443      1447      1446      1443      1447
      1442      1444      1448      1442      1444      1449      1442      1444      1450
      1448      1444      1449      1448      1444      1450      1449      1444      1450
      1451      1452      1453      1451      1452      1454      1453      1452      1454
      1452      1453      1455      1452      1453      1456      1452      1453      1457
      1455      1453      1456      1455      1453      1457      1456      1453      1457
      1452      1454      1458      1452      1454      1459      1452      1454      1460
      1458      1454      1459      1458      1454      1460      1459      1454      1460
      1461      1462      1463      1461      1462      1464      1463      1462      1464
      1462      1463      1465      1462      1463      1466      1462      1463      1467
      1465      1463      1466      1465      1463      1467      1466      1463      1467
      1462      1464      1468      1462      1464      1469      1462      1464      1470
      1468      1464      1469      1468      1464      1470      1469      1464      1470
      1471      1472      1473      1471      1472      1474      1473      1472      1474
      1472      1473      1475      1472      1473      1476      1472      1473      1477
      1475      1473      1476      1475      1473      1477      1476      1473      1477
      1472      1474      1478      1472      1474      1479      1472      1474      1480
      1478      1474      1479      1478      1474      1480      1479      1474      1480
      1481      1482      1483      1481      1482      1484      1483      1482      1484
      1482      1483      1485      1482      1483      1486      1482      1483      1487
      1485      1483      1486      1485      1483      1487      1486      1483      1487
      1482      1484      1488      1482      1484      1489      1482      1484      1490
      1488      1484      1489      1488      1484      1490      1489      1484      1490
      1491      1492      1493      1491      1492      1494      1493      1492      1494
      1492      1493      1495      1492      1493      1496      1492      1493      1497
      1495      1493      1496      1495      1493      1497      1496      1493      1497
      1492      1494      1498      1492      1494      1499      1492      1494      1500
      1498      1494      1499      1498      1494      1500      1499      1494      1500
      1501      1502      1503      1501      1502      1504      1503      1502      1504
      1502      1503      1505      1502      1503      1506      1502      1503      1507
      1505      1503      1506      1505      1503      1507      1506      1503      1507
      1502      1504      1508      1502      1504      1509      1502      1504      1510
      1508      1504      1509      1508      1504      1510      1509      1504      1510
      1511      1512      1513      1511      1512      1514      1513      1512      1514
      1512      1513      1515      1512      1513      1516      1512      1513      1517
      1515      1513      1516      1515      1513      1517      1516      1513      1517
      1512      1514      1518      1512      1514      1519      1512      1514      1520
      1518      1514      1519      1518      1514      1520      1519      1514      1520
      1521      1522      1523      1521      1522      1524      1523      1522      1524
      1522      1523      1525      1522      1523      1526      1522      1523      1527
      1525      1523      1526      1525      1523      1527      1526      1523      1527
      1522      1524      1528      1522      1524      1529      1522      1524      1530
      1528      1524      1529      1528      1524      1530      1529      1524      1530
      1531      1532      1533      1531      1532      1534      1533      1532      1534
      1532      1533      1535      1532      1533      1536      1532      1533      1537
      1535      1533      1536      1535      1533      1537      1536      1533      1537
      1532      1534      1538      1532      1534      1539      1532      1534      1540
      1538      1534      1539      1538      1534      1540      1539      1534      1540
      1541      1542      1543      1541      1542      1544      1543      1542      1544
      1542      1543      1545      1542      1543      1546      1542      1543      1547
      1545      1543      1546      1545      1543      1547      1546      1543      1547
      1542      1544      1548      1542      1544      1549      1542      1544      1550
      1548      1544      1549      1548      1544      1550      1549      1544      1550
      1551      1552      1553      1551      1552      1554      1553      1552      1554
      1552      1553      1555      1552      1553      1556      1552      1553      1557
      1555      1553      1556      1555      1553      1557      1556      1553      1557
      1552      1554      1558      1552      1554      1559      1552      1554      1560
      1558      1554      1559      1558      1554      1560      1559      1554      1560
      1561      1562      1563      1561      1562      1564      1563      1562      1564
      1562      1563      1565      1562      1563      1566      1562      1563      1567
      1565      1563      1566      1565      1563      1567      1566      1563      1567
      1562      1564      1568      1562      1564      1569      1562      1564      1570
      1568      1564      1569      1568      1564      1570      1569      1564      1570
      1571      1572      1573      1571      1572      1574      1573      1572      1574
      1572      1573      1575      1572      1573      1576      1572      1573      1577
      1575      1573      1576      1575      1573      1577      1576      1573      1577
      1572      1574      1578      1572      1574      1579      1572      1574      1580
      1578      1574      1579      1578      1574      1580      1579      1574      1580
      1581      1582      1583      1581      1582      1584      1583      1582      1584
      1582      1583      1585      1582      1583      1586      1582      1583      1587
      1585      1583      1586      1585      1583      1587      1586      1583      1587
      1582      1584      1588      1582      1584      1589      1582      1584      1590
      1588      1584      1589      1588      1584      1590      1589      1584      1590
      1591      1592      1593      1591      1592      1594      1593      1592      1594
      1592      1593      1595      1592      1593      1596      1592      1593      1597
      1595      1593      1596      1595      1593      1597      1596      1593      1597
      1592      1594      1598      1592      1594      1599      1592      1594      1600
      1598      1594      1599      1598      1594      1600      1599      1594      1600
      1601      1602      1603      1601      1602      1604      1603      1602      1604
      1602      1603      1605      1602      1603      1606      1602      1603      1607
      1605      1603      1606      1605      1603      1607      1606      1603      1607
      1602      1604      1608      1602      1604      1609      1602      1604      1610
      1608      1604      1609      1608      1604      1610      1609      1604      1610
      1611      1612      1613      1611      1612      1614      1613      1612      1614
      1612      1613      1615      1612      1613      1616      1612      1613      1617
      1615      1613      1616      1615      1613      1617      1616      1613      1617
      1612      1614      1618      1612      1614      1619      1612      1614      1620
      1618      1614      1619      1618      1614      1620      1619      1614      1620
      1621      1622      1623      1621      1622      1624      1623      1622      1624
      1622      1623      1625      1622      1623      1626      1622      1623      1627
      1625      1623      1626      1625      1623      1627      1626      1623      1627
      1622      1624      1628      1622      1624      1629      1622      1624      1630
      1628      1624      1629      1628      1624      1630      1629      1624      1630
      1631      1632      1633      1631      1632      1634      1633      1632      1634
      1632      1633      1635      1632      1633      1636      1632      1633      1637
      1635      1633      1636      1635      1633      1637      1636      1633      1637
      1632      1634      1638      1632      1634      1639      1632      1634      1640
      1638      1634      1639      1638      1634      1640      1639      1634      1640
      1641      1642      1643      1641      1642      1644      1643      1642      1644
      1642      1643      1645      1642      1643      1646      1642      1643      1647
      1645      1643      1646      1645      1643      1647      1646      1643      1647
      1642      1644      1648      1642      1644      1649      1642      1644      1650
      1648      1644      1649      1648      1644      1650      1649      1644      1650
      1651      1652      1653      1651      1652      1654      1653      1652      1654
      1652      1653      1655      1652      1653      1656      1652      1653      1657
      1655      1653      1656      1655      1653      1657      1656      1653      1657
      1652      1654      1658      1652      1654      1659      1652      1654      1660
      1658      1654      1659      1658      1654      1660      1659      1654      1660
      1661      1662      1663      1661      1662      1664      1663      1662      1664
      1662      1663      1665      1662      1663      1666      1662      1663      1667
      1665      1663      1666      1665      1663      1667      1666      1663      1667
      1662      1664      1668      1662      1664      1669      1662      1664      1670
      1668      1664      1669      1668      1664      1670      1669      1664      1670
      1671      1672      1673      1671      1672      1674      1673      1672      1674
      1672      1673      1675      1672      1673      1676      1672      1673      1677
      1675      1673      1676      1675      1673      1677      1676      1673      1677
      1672      1674      1678      1672      1674      1679      1672      1674      1680
      1678      1674      1679      1678      1674      1680      1679      1674      1680
      1681      1682      1683      1681      1682      1684      1683      1682      1684
      1682      1683      1685      1682      1683      1686      1682      1683      1687
      1685      1683      1686      1685      1683      1687      1686      1683      1687
      1682      1684      1688      1682      1684      1689      1682      1684      1690
      1688      1684      1689      1688      1684      1690      1689      1684      1690
      1691      1692      1693      1691      1692      1694      1693      1692      1694
      1692      1693      1695      1692      1693      1696      1692      1693      1697
      1695      1693      1696      1695      1693      1697      1696      1693      1697
      1692      1694      1698      1692      1694      1699      1692      1694      1700
      1698      1694      1699      1698      1694      1700      1699      1694      1700
      1701      1702      1703      1701      1702      1704      1703      1702      1704
      1702      1703      1705      1702      1703      1706      1702      1703      1707
      1705      1703      1706      1705      1703      1707      1706      1703      1707
      1702      1704      1708      1702      1704      1709      1702      1704      1710
      1708      1704      1709      1708      1704      1710      1709      1704      1710
      1711      1712      1713      1711      1712      1714      1713      1712      1714
      1712      1713      1715      1712      1713      1716      1712      1713      1717
      1715      1713      1716      1715      1713      1717      1716      1713      1717
      1712      1714      1718      1712      1714      1719      1712      1714      1720
      1718      1714      1719      1718      1714      1720      1719      1714      1720
      1721      1722      1723      1721      1722      1724      1723      1722      1724
      1722      1723      1725      1722      1723      1726      1722      1723      1727
      1725      1723      1726      1725      1723      1727      1726      1723      1727
      1722      1724      1728      1722      1724      1729      1722      1724      1730
      1728      1724      1729      1728      1724      1730      1729      1724      1730
      1731      1732      1733      1731      1732      1734      1733      1732      1734
      1732      1733      1735      1732      1733      1736      1732      1733      1737
      1735      1733      1736      1735      1733      1737      1736      1733      1737
      1732      1734      1738      1732      1734      1739      1732      1734      1740
      1738      1734      1739      1738      1734      1740      1739      1734      1740
      1741      1742      1743      1741      1742      1744      1743      1742      1744
      1742      1743      1745      1742      1743      1746      1742      1743      1747
      1745      1743      1746      1745      1743      1747      1746      1743      1747
      1742      1744      1748      1742      1744      1749      1742      1744      1750
      1748      1744      1749      1748      1744      1750      1749      1744      1750
      1751      1752      1753      1751      1752      1754      1753      1752      1754
      1752      1753      1755      1752      1753      1756      1752      1753      1757
      1755      1753      1756      1755      1753      1757      1756      1753      1757
      1752      1754      1758      1752      1754      1759      1752      1754      1760
      1758      1754      1759      1758      1754      1760      1759      1754      1760
      1761      1762      1763      1761      1762      1764      1763      1762      1764
      1762      1763      1765      1762      1763      1766      1762      1763      1767
      1765      1763      1766      1765      1763      1767      1766      1763      1767
      1762      1764      1768      1762      1764      1769      1762      1764      1770
      1768      1764      1769      1768      1764      1770      1769      1764      1770
      1771      1772      1773      1771      1772      1774      1773      1772      1774
      1772      1773      1775      1772      1773      1776      1772      1773      1777
      1775      1773      1776      1775      1773      1777      1776      1773      1777
      1772      1774      1778      1772      1774      1779      1772      1774      1780
      1778      1774      1779      1778      1774      1780      1779      1774      1780

      2136 !NPHI: dihedrals
         1         2         3         5         1         2         3         6
         1         2         3         7         1         2         4         8
         1         2         4         9         1         2         4        10
         3         2         4         8         3         2         4         9
         3         2         4        10         4         2         3         5
         4         2         3         6         4         2         3         7
        11        12        13        15        11        12        13        16
        11        12        13        17        11        12        14        18
        11        12        14        19        11        12        14        20
        13        12        14        18        13        12        14        19
        13        12        14        20        14        12        13        15
        14        12        13        16        14        12        13        17
        21        22        23        25        21        22        23        26
        21        22        23        27        21        22        24        28
        21        22        24        29        21        22        24        30
        23        22        24        28        23        22        24        29
        23        22        24        30        24        22        23        25
        24        22        23        26        24        22        23        27
        31        32        33        35        31        32        33        36
        31        32        33        37        31        32        34        38
        31        32        34        39        31        32        34        40
        33        32        34        38        33        32        34        39
        33        32        34        40        34        32        33        35
        34        32        33        36        34        32        33        37
        41        42        43        45        41        42        43        46
        41        42        43        47        41        42        44        48
        41        42        44        49        41        42        44        50
        43        42        44        48        43        42        44        49
        43        42        44        50        44        42        43        45
        44        42        43        46        44        42        43        47
        51        52        53        55        51        52        53        56
        51        52        53        57        51        52        54        58
        51        52        54        59        51        52        54        60
        53        52        54        58        53        52        54        59
        53        52        54        60        54        52        53        55
        54        52        53        56        54        52        53        57
        61        62        63        65        61        62        63        66
        61        62        63        67        61        62        64        68
        61        62        64        69        61        62        64        70
        63        62        64        68        63        62        64        69
        63        62        64        70        64        62        63        65
        64        62        63        66        64        62        63        67
        71        72        73        75        71        72        73        76
        71        72        73        77        71        72        74        78
        71        72        74        79        71        72        74        80
        73        72        74        78        73        72        74        79
        73        72        74        80        74        72        73        75
        74        72        73        76        74        72        73        77
        81        82        83        85        81        82        83        86
        81        82        83        87        81        82        84        88
        81        82        84        89        81        82        84        90
        83        82        84        88        83        82        84        89
        83        82        84        90        84        82        83        85
        84        82        83        86        84        82        83        87
        91        92        93        95        91        92        93        96
        91        92        93        97        91        92        94        98
        91        92        94        99        91        92        94       100
        93        92        94        98        93        92        94        99
        93        92        94       100        94        92        93        95
        94        92        93        96        94        92        93        97
       101       102       103       105       101       102       103       106
       101       102       103       107       101       102       104       108
       101       102       104       109       101       102       104       110
       103       102       104       108       103       102       104       109
       103       102       104       110       104       102       103       105
       104       102       103       106       104       102       103       107
       111       112       113       115       111       112       113       116
       111       112       113       117       111       112       114       118
       111       112       114       119       111       112       114       120
       113       112       114       118       113       112       114       119
       113       112       114       120       114       112       113       115
       114       112       113       116       114       112       113       117
       121       122       123       125       121       122       123       126
       121       122       123       127       121       122       124       128
       121       122       124       129       121       122       124       130
       123       122       124       128       123       122       124       129
       123       122       124       130       124       122       123       125
       124       122       123       126       124       122       123       127
       131       132       133       135       131       132       133       136
       131       132       133       137       131       132       134       138
       131       132       134       139       131       132       134       140
       133       132       134       138       133       132       134       139
       133       132       134       140       134       132       133       135
       134       132       133       136       134       132       133       137
       141       142       143       145       141       142       143       146
       141       142       143       147       141       142       144       148
       141       142       144       149       141       142       144       150
       143       142       144       148       143       142       144       149
       143       142       144       150       144       142       143       145
       144       142       143       146       144       142       143       147
       151       152       153       155       151       152       153       156
       151       152       153       157       151       152       154       158
       151       152       154       159       151       152       154       160
       153       152       154       158       153       152       154       159
       153       152       154       160       154       152       153       155
       154       152       153       156       154       152       153       157
       161       162       163       165       161       162       163       166
       161       162       163       167       161       162       164       168
       161       162       164       169       161       162       164       170
       163       162       164       168       163       162       164       169
       163       162       164       170       164       162       163       165
       164       162       163       166       164       162       163       167
       171       172       173       175       171       172       173       176
       171       172       173       177       171       172       174       178
       171       172       174       179       171       172       174       180
       173       172       174       178       173       172       174       179
       173       172       174       180       174       172       173       175
       174       172       173       176       174       172       173       177
       181       182       183       185       181       182       183       186
       181       182       183       187       181       182       184       188
       181       182       184       189       181       182       184       190
       183       182       184       188       183       182       184       189
       183       182       184       190       184       182       183       185
       184       182       183       186       184       182       183       187
       191       192       193       195       191       192       193       196
       191       192       193       197       191       192       194       198
       191       192       194       199       191       192       194       200
       193       192       194       198       193       192       194       199
       193       192       194       200       194       192       193       195
       194       192       193       196       194       192       193       197
       201       202       203       205       201       202       203       206
       201       202       203       207       201       202       204       208
       201       202       204       209       201       202       204       210
       203       202       204       208       203       202       204       209
       203       202       204       210       204       202       203       205
       204       202       203       206       204       202       203       207
       211       212       213       215       211       212       213       216
       211       212       213       217       211       212       214       218
       211       212       214       219       211       212       214       220
       213       212       214       218       213       212       214       219
       213       212       214       220       214       212       213       215
       214       212       213       216       214       212       213       217
       221       222       223       225       221       222       223       226
       221       222       223       227       221       222       224       228
       221       222       224       229       221       222       224       230
       223       222       224       228       223       222       224       229
       223       222       224       230       224       222       223       225
       224       222       223       226       224       222       223       227
       231       232       233       235       231       232       233       236
       231       232       233       237       231       232       234       238
       231       232       234       239       231       232       234       240
       233       232       234       238       233       232       234       239
       233       232       234       240       234       232       233       235
       234       232       233       236       234       232       233       237
       241       242       243       245       241       242       243       246
       241       242       243       247       241       242       244       248
       241       242       244       249       241       242       244       250
       243       242       244       248       243       242       244       249
       243       242       244       250       244       242       243       245
       244       242       243       246       244       242       243       247
       251       252       253       255       251       252       253       256
       251       252       253       257       251       252       254       258
       251       252       254       259       251       252       254       260
       253       252       254       258       253       252       254       259
       253       252       254       260       254       252       253       255
       254       252       253       256       254       252       253       257
       261       262       263       265       261       262       263       266
       261       262       263       267       261       262       264       268
       261       262       264       269       261       262       264       270
       263       262       264       268       263       262       264       269
       263       262       264       270       264       262       263       265
       264       262       263       266       264       262       263       267
       271       272       273       275       271       272       273       276
       271       272       273       277       271       272       274       278
       271       272       274       279       271       272       274       280
       273       272       274       278       273       272       274       279
       273       272       274       280       274       272       273       275
       274       272       273       276       274       272       273       277
       281       282       283       285       281       282       283       286
       281       282       283       287       281       282       284       288
       281       282       284       289       281       282       284       290
       283       282       284       288       283       282       284       289
       283       282       284       290       284       282       283       285
       284       282       283       286       284       282       283       287
       291       292       293       295       291       292       293       296
       291       292       293       297       291       292       294       298
       291       292       294       299       291       292       294       300
       293       292       294       298       293       292       294       299
       293       292       294       300       294       292       293       295
       294       292       293       296       294       292       293       297
       301       302       303       305       301       302       303       306
       301       302       303       307       301       302       304       308
       301       302       304       309       301       302       304       310
       303       302       304       308       303       302       304       309
       303       302       304       310       304       302       303       305
       304       302       303       306       304       302       303       307
       311       312       313       315       311       312       313       316
       311       312       313       317       311       312       314       318
       311       312       314       319       311       312       314       320
       313       312       314       318       313       312       314       319
       313       312       314       320       314       312       313       315
       314       312       313       316       314       312       313       317
       321       322       323       325       321       322       323       326
       321       322       323       327       321       322       324       328
       321       322       324       329       321       322       324       330
       323       322       324       328       323       322       324       329
       323       322       324       330       324       322       323       325
       324       322       323       326       324       322       323       327
       331       332       333       335       331       332       333       336
       331       332       333       337       331       332       334       338
       331       332       334       339       331       332       334       340
       333       332       334       338       333       332       334       339
       333       332       334       340       334       332       333       335
       334       332       333       336       334       332       333       337
       341       342       343       345       341       342       343       346
       341       342       343       347       341       342       344       348
       341       342       344       349       341       342       344       350
       343       342       344       348       343       342       344       349
       343       342       344       350       344       342       343       345
       344       342       343       346       344       342       343       347
       351       352       353       355       351       352       353       356
       351       352       353       357       351       352       354       358
       351       352       354       359       351       352       354       360
       353       352       354       358       353       352       354       359
       353       352       354       360       354       352       353       355
       354       352       353       356       354       352       353       357
       361       362       363       365       361       362       363       366
       361       362       363       367       361       362       364       368
       361       362       364       369       361       362       364       370
       363       362       364       368       363       362       364       369
       363       362       364       370       364       362       363       365
       364       362       363       366       364       362       363       367
       371       372       373       375       371       372       373       376
       371       372       373       377       371       372       374       378
       371       372       374       379       371       372       374       380
       373       372       374       378       373       372       374       379
       373       372       374       380       374       372       373       375
       374       372       373       376       374       372       373       377
       381       382       383       385       381       382       383       386
       381       382       383       387       381       382       384       388
       381       382       384       389       381       382       384       390
       383       382       384       388       383       382       384       389
       383       382       384       390       384       382       383       385
       384       382       383       386       384       382       383       387
       391       392       393       395       391       392       393       396
       391       392       393       397       391       392       394       398
       391       392       394       399       391       392       394       400
       393       392       394       398       393       392       394       399
       393       392       394       400       394       392       393       395
       394       392       393       396       394       392       393       397
       401       402       403       405       401       402       403       406
       401       402       403       407       401       402       404       408
       401       402       404       409       401       402       404       410
       403       402       404       408       403       402       404       409
       403       402       404       410       404       402       403       405
       404       402       403       406       404       402       403       407
       411       412       413       415       411       412       413       416
       411       412       413       417       411       412       414       418
       411       412       414       419       411       412       414       420
       413       412       414       418       413       412       414       419
       413       412       414       420       414       412       413       415
       414       412       413       416       414       412       413       417
       421       422       423       425       421       422       423       426
       421       422       423       427       421       422       424       428
       421       422       424       429       421       422       424       430
       423       422       424       428       423       422       424       429
       423       422       424       430       424       422       423       425
       424       422       423       426       424       422       423       427
       431       432       433       435       431       432       433       436
       431       432       433       437       431       432       434       438
       431       432       434       439       431       432       434       440
       433       432       434       438       433       432       434       439
       433       432       434       440       434       432       433       435
       434       432       433       436       434       432       433       437
       441       442       443       445       441       442       443       446
       441       442       443       447       441       442       444       448
       441       442       444       449       441       442       444       450
       443       442       444       448       443       442       444       449
       443       442       444       450       444       442       443       445
       444       442       443       446       444       442       443       447
       451       452       453       455       451       452       453       456
       451       452       453       457       451       452       454       458
       451       452       454       459       451       452       454       460
       453       452       454       458       453       452       454       459
       453       452       454       460       454       452       453       455
       454       452       453       456       454       452       453       457
       461       462       463       465       461       462       463       466
       461       462       463       467       461       462       464       468
       461       462       464       469       461       462       464       470
       463       462       464       468       463       462       464       469
       463       462       464       470       464       462       463       465
       464       462       463       466       464       462       463       467
       471       472       473       475       471       472       473       476
       471       472       473       477       471       472       474       478
       471       472       474       479       471       472       474       480
       473       472       474       478       473       472       474       479
       473       472       474       480       474       472       473       475
       474       472       473       476       474       472       473       477
       481       482       483       485       481       482       483       486
       481       482       483       487       481       482       484       488
       481       482       484       489       481       482       484       490
       483       482       484       488       483       482       484       489
       483       482       484       490       484       482       483       485
       484       482       483       486       484       482       483       487
       491       492       493       495       491       492       493       496
       491       492       493       497       491       492       494       498
       491       492       494       499       491       492       494       500
       493       492       494       498       493       492       494       499
       493       492       494       500       494       492       493       495
       494       492       493       496       494       492       493       497
       501       502       503       505       501       502       503       506
       501       502       503       507       501       502       504       508
       501       502       504       509       501       502       504       510
       503       502       504       508       503       502       504       509
       503       502       504       510       504       502       503       505
       504       502       503       506       504       502       503       507
       511       512       513       515       511       512       513       516
       511       512       513       517       511       512       514       518
       511       512       514       519       511       512       514       520
       513       512       514       518       513       512       514       519
       513       512       514       520       514       512       513       515
       514       512       513       516       514       512       513       517
       521       522       523       525       521       522       523       526
       521       522       523       527       521       522       524       528
       521       522       524       529       521       522       524       530
       523       522       524       528       523       522       524       529
       523       522       524       530       524       522       523       525
       524       522       523       526       524       522       523       527
       531       532       533       535       531       532       533       536
       531       532       533       537       531       532       534       538
       531       532       534       539       531       532       534       540
       533       532       534       538       533       532       534       539
       533       532       534       540       534       532       533       535
       534       532       533       536       534       532       533       537
       541       542       543       545       541       542       543       546
       541       542       543       547       541       542       544       548
       541       542       544       549       541       542       544       550
       543       542       544       548       543       542       544       549
       543       542       544       550       544       542       543       545
       544       542       543       546       544       542       543       547
       551       552       553       555       551       552       553       556
       551       552       553       557       551       552       554       558
       551       552       554       559       551       552       554       560
       553       552       554       558       553       552       554       559
       553       552       554       560       554       552       553       555
       554       552       553       556       554       552       553       557
       561       562       563       565       561       562       563       566
       561       562       563       567       561       562       564       568
       561       562       564       569       561       562       564       570
       563       562       564       568       563       562       564       569
       563       562       564       570       564       562       563       565
       564       562       563       566       564       562       563       567
       571       572       573       575       571       572       573       576
       571       572       573       577       571       572       574       578
       571       572       574       579       571       572       574       580
       573       572       574       578       573       572       574       579
       573       572       574       580       574       572       573       575
       574       572       573       576       574       572       573       577
       581       582       583       585       581       582       583       586
       581       582       583       587       581       582       584       588
       581       582       584       589       581       582       584       590
       583       582       584       588       583       582       584       589
       583       582       584       590       584       582       583       585
       584       582       583       586       584       582       583       587
       591       592       593       595       591       592       593       596
       591       592       593       597       591       592       594       598
       591       592       594       599       591       592       594       600
       593       592       594       598       593       592       594       599
       593       592       594       600       594       592       593       595
       594       592       593       596       594       592       593       597
       601       602       603       605       601       602       603       606
       601       602       603       607       601       602       604       608
       601       602       604       609       601       602       604       610
       603       602       604       608       603       602       604       609
       603       602       604       610       604       602       603       605
       604       602       603       606       604       602       603       607
       611       612       613       615       611       612       613       616
       611       612       613       617       611       612       614       618
       611       612       614       619       611       612       614       620
       613       612       614       618       613       612       614       619
       613       612       614       620       614       612       613       615
       614       612       613       616       614       612       613       617
       621       622       623       625       621       622       623       626
       621       622       623       627       621       622       624       628
       621       622       624       629       621       622       624       630
       623       622       624       628       623       622       624       629
       623       622       624       630       624       622       623       625
       624       622       623       626       624       622       623       627
       631       632       633       635       631       632       633       636
       631       632       633       637       631       632       634       638
       631       632       634       639       631       632       634       640
       633       632       634       638       633       632       634       639
       633       632       634       640       634       632       633       635
       634       632       633       636       634       632       633       637
       641       642       643       645       641       642       643       646
       641       642       643       647       641       642       644       648
       641       642       644       649       641       642       644       650
       643       642       644       648       643       642       644       649
       643       642       644       650       644       642       643       645
       644       642       643       646       644       642       643       647
       651       652       653       655       651       652       653       656
       651       652       653       657       651       652       654       658
       651       652       654       659       651       652       654       660
       653       652       654       658       653       652       654       659
       653       652       654       660       654       652       653       655
       654       652       653       656       654       652       653       657
       661       662       663       665       661       662       663       666
       661       662       663       667       661       662       664       668
       661       662       664       669       661       662       664       670
       663       662       664       668       663       662       664       669
       663       662       664       670       664       662       663       665
       664       662       663       666       664       662       663       667
       671       672       673       675       671       672       673       676
       671       672       673       677       671       672       674       678
       671       672       674       679       671       672       674       680
       673       672       674       678       673       672       674       679
       673       672       674       680       674       672       673       675
       674       672       673       676       674       672       673       677
       681       682       683       685       681       682       683       686
       681       682       683       687       681       682       684       688
       681       682       684       689       681       682       684       690
       683       682       684       688       683       682       684       689
       683       682       684       690       684       682       683       685
       684       682       683       686       684       682       683       687
       691       692       693       695       691       692       693       696
       691       692       693       697       691       692       694       698
       691       692       694       699       691       692       694       700
       693       692       694       698       693       692       694       699
       693       692       694       700       694       692       693       695
       694       692       693       696       694       692       693       697
       701       702       703       705       701       702       703       706
       701       702       703       707       701       702       704       708
       701       702       704       709       701       702       704       710
       703       702       704       708       703       702       704       709
       703       702       704       710       704       702       703       705
       704       702       703       706       704       702       703       707
       711       712       713       715       711       712       713       716
       711       712       713       717       711       712       714       718
       711       712       714       719       711       712       714       720
       713       712       714       718       713       712       714       719
       713       712       714       720       714       712       713       715
       714       712       713       716       714       712       713       717
       721       722       723       725       721       722       723       726
       721       722       723       727       721       722       724       728
       721       722       724       729       721       722       724       730
       723       722       724       728       723       722       724       729
       723       722       724       730       724       722       723       725
       724       722       723       726       724       722       723       727
       731       732       733       735       731       732       733       736
       731       732       733       737       731       732       734       738
       731       732       734       739       731       732       734       740
       733       732       734       738       733       732       734       739
       733       732       734       740       734       732       733       735
       734       732       733       736       734       732       733       737
       741       742       743       745       741       742       743       746
       741       742       743       747       741       742       744       748
       741       742       744       749       741       742       744       750
       743       742       744       748       743       742       744       749
       743       742       744       750       744       742       743       745
       744       742       743       746       744       742       743       747
       751       752       753       755       751       752       753       756
       751       752       753       757       751       752       754       758
       751       752       754       759       751       752       754       760
       753       752       754       758       753       752       754       759
       753       752       754       760       754       752       753       755
       754       752       753       756       754       752       753       757
       761       762       763       765       761       762       763       766
       761       762       763       767       761       762       764       768
       761       762       764       769       761       762       764       770
       763       762       764       768       763       762       764       769
       763       762       764       770       764       762       763       765
       764       762       763       766       764       762       763       767
       771       772       773       775       771       772       773       776
       771       772       773       777       771       772       774       778
       771       772       774       779       771       772       774       780
       773       772       774       778       773       772       774       779
       773       772       774       780       774       772       773       775
       774       772       773       776       774       772       773       777
       781       782       783       785       781       782       783       786
       781       782       783       787       781       782       784       788
       781       782       784       789       781       782       784       790
       783       782       784       788       783       782       784       789
       783       782       784       790       784       782       783       785
       784       782       783       786       784       782       783       787
       791       792       793       795       791       792       793       796
       791       792       793       797       791       792       794       798
       791       792       794       799       791       792       794       800
       793       792       794       798       793       792       794       799
       793       792       794       800       794       792       793       795
       794       792       793       796       794       792       793       797
       801       802       803       805       801       802       803       806
       801       802       803       807       801       802       804       808
       801       802       804       809       801       802       804       810
       803       802       804       808       803       802       804       809
       803       802       804       810       804       802       803       805
       804       802       803       806       804       802       803       807
       811       812       813       815       811       812       813       816
       811       812       813       817       811       812       814       818
       811       812       814       819       811       812       814       820
       813       812       814       818       813       812       814       819
       813       812       814       820       814       812       813       815
       814       812       813       816       814       812       813       817
       821       822       823       825       821       822       823       826
       821       822       823       827       821       822       824       828
       821       822       824       829       821       822       824       830
       823       822       824       828       823       822       824       829
       823       822       824       830       824       822       823       825
       824       822       823       826       824       822       823       827
       831       832       833       835       831       832       833       836
       831       832       833       837       831       832       834       838
       831       832       834       839       831       832       834       840
       833       832       834       838       833       832       834       839
       833       832       834       840       834       832       833       835
       834       832       833       836       834       832       833       837
       841       842       843       845       841       842       843       846
       841       842       843       847       841       842       844       848
       841       842       844       849       841       842       844       850
       843       842       844       848       843       842       844       849
       843       842       844       850       844       842       843       845
       844       842       843       846       844       842       843       847
       851       852       853       855       851       852       853       856
       851       852       853       857       851       852       854       858
       851       852       854       859       851       852       854       860
       853       852       854       858       853       852       854       859
       853       852       854       860       854       852       853       855
       854       852       853       856       854       852       853       857
       861       862       863       865       861       862       863       866
       861       862       863       867       861       862       864       868
       861       862       864       869       861       862       864       870
       863       862       864       868       863       862       864       869
       863       862       864       870       864       862       863       865
       864       862       863       866       864       862       863       867
       871       872       873       875       871       872       873       876
       871       872       873       877       871       872       874       878
       871       872       874       879       871       872       874       880
       873       872       874       878       873       872       874       879
       873       872       874       880       874       872       873       875
       874       872       873       876       874       872       873       877
       881       882       883       885       881       882       883       886
       881       882       883       887       881       882       884       888
       881       882       884       889       881       882       884       890
       883       882       884       888       883       882       884       889
       883       882       884       890       884       882       883       885
       884       882       883       886       884       882       883       887
       891       892       893       895       891       892       893       896
       891       892       893       897       891       892       894       898
       891       892       894       899       891       892       894       900
       893       892       894       898       893       892       894       899
       893       892       894       900       894       892       893       895
       894       892       893       896       894       892       893       897
       901       902       903       905       901       902       903       906
       901       902       903       907       901       902       904       908
       901       902       904       909       901       902       904       910
       903       902       904       908       903       902       904       909
       903       902       904       910       904       902       903       905
       904       902       903       906       904       902       903       907
       911       912       913       915       911       912       913       916
       911       912       913       917       911       912       914       918
       911       912       914       919       911       912       914       920
       913       912       914       918       913       912       914       919
       913       912       914       920       914       912       913       915
       914       912       913       916       914       912       913       917
       921       922       923       925       921       922       923       926
       921       922       923       927       921       922       924       928
       921       922       924       929       921       922       924       930
       923       922       924       928       923       922       924       929
       923       922       924       930       924       922       923       925
       924       922       923       926       924       922       923       927
       931       932       933       935       931       932       933       936
       931       932       933       937       931       932       934       938
       931       932       934       939       931       932       934       940
       933       932       934       938       933       932       934       939
       933       932       934       940       934       932       933       935
       934       932       933       936       934       932       933       937
       941       942       943       945       941       942       943       946
       941       942       943       947       941       942       944       948
       941       942       944       949       941       942       944       950
       943       942       944       948       943       942       944       949
       943       942       944       950       944       942       943       945
       944       942       943       946       944       942       943       947
       951       952       953       955       951       952       953       956
       951       952       953       957       951       952       954       958
       951       952       954       959       951       952       954       960
       953       952       954       958       953       952       954       959
       953       952       954       960       954       952       953       955
       954       952       953       956       954       952       953       957
       961       962       963       965       961       962       963       966
       961       962       963       967       961       962       964       968
       961       962       964       969       961       962       964       970
       963       962       964       968       963       962       964       969
       963       962       964       970       964       962       963       965
       964       962       963       966       964       962       963       967
       971       972       973       975       971       972       973       976
       971       972       973       977       971       972       974       978
       971       972       974       979       971       972       974       980
       973       972       974       978       973       972       974       979
       973       972       974       980       974       972       973       975
       974       972       973       976       974       972       973       977
       981       982       983       985       981       982       983       986
       981       982       983       987       981       982       984       988
       981       982       984       989       981       982       984       990
       983       982       984       988       983       982       984       989
       983       982       984       990       984       982       983       985
       984       982       983       986       984       982       983       987
       991       992       993       995       991       992       993       996
       991       992       993       997       991       992       994       998
       991       992       994       999       991       992       994      1000
       993       992       994       998       993       992       994       999
       993       992       994      1000       994       992       993       995
       994       992       993       996       994       992       993       997
      1001      1002      1003      1005      1001      1002      1003      1006
      1001      1002      1003      1007      1001      1002      1004      1008
      1001      1002      1004      1009      1001      1002      1004      1010
      1003      1002      1004      1008      1003      1002      1004      1009
      1003      1002      1004      1010      1004      1002      1003      1005
      1004      1002      1003      1006      1004      1002      1003      1007
      1011      1012      1013      1015      1011      1012      1013      1016
      1011      1012      1013      1017      1011      1012      1014      1018
      1011      1012      1014      1019      1011      1012      1014      1020
      1013      1012      1014      1018      1013      1012      1014      1019
      1013      1012      1014      1020      1014      1012      1013      1015
      1014      1012      1013      1016      1014      1012      1013      1017
      1021      1022      1023      1025      1021      1022      1023      1026
      1021      1022      1023      1027      1021      1022      1024      1028
      1021      1022      1024      1029      1021      1022      1024      1030
      1023      1022      1024      1028      1023      1022      1024      1029
      1023      1022      1024      1030      1024      1022      1023      1025
      1024      1022      1023      1026      1024      1022      1023      1027
      1031      1032      1033      1035      1031      1032      1033      1036
      1031      1032      1033      1037      1031      1032      1034      1038
      1031      1032      1034      1039      1031      1032      1034      1040
      1033      1032      1034      1038      1033      1032      1034      1039
      1033      1032      1034      1040      1034      1032      1033      1035
      1034      1032      1033      1036      1034      1032      1033      1037
      1041      1042      1043      1045      1041      1042      1043      1046
      1041      1042      1043      1047      1041      1042      1044      1048
      1041      1042      1044      1049      1041      1042      1044      1050
      1043      1042      1044      1048      1043      1042      1044      1049
      1043      1042      1044      1050      1044      1042      1043      1045
      1044      1042      1043      1046      1044      1042      1043      1047
      1051      1052      1053      1055      1051      1052      1053      1056
      1051      1052      1053      1057      1051      1052      1054      1058
      1051      1052      1054      1059      1051      1052      1054      1060
      1053      1052      1054      1058      1053      1052      1054      1059
      1053      1052      1054      1060      1054      1052      1053      1055
      1054      1052      1053      1056      1054      1052      1053      1057
      1061      1062      1063      1065      1061      1062      1063      1066
      1061      1062      1063      1067      1061      1062      1064      1068
      1061      1062      1064      1069      1061      1062      1064      1070
      1063      1062      1064      1068      1063      1062      1064      1069
      1063      1062      1064      1070      1064      1062      1063      1065
      1064      1062      1063      1066      1064      1062      1063      1067
      1071      1072      1073      1075      1071      1072      1073      1076
      1071      1072      1073      1077      1071      1072      1074      1078
      1071      1072      1074      1079      1071      1072      1074      1080
      1073      1072      1074      1078      1073      1072      1074      1079
      1073      1072      1074      1080      1074      1072      1073      1075
      1074      1072      1073      1076      1074      1072      1073      1077
      1081      1082      1083      1085      1081      1082      1083      1086
      1081      1082      1083      1087      1081      1082      1084      1088
      1081      1082      1084      1089      1081      1082      1084      1090
      1083      1082      1084      1088      1083      1082      1084      1089
      1083      1082      1084      1090      1084      1082      1083      1085
      1084      1082      1083      1086      1084      1082      1083      1087
      1091      1092      1093      1095      1091      1092      1093      1096
      1091      1092      1093      1097      1091      1092      1094      1098
      1091      1092      1094      1099      1091      1092      1094      1100
      1093      1092      1094      1098      1093      1092      1094      1099
      1093      1092      1094      1100      1094      1092      1093      1095
      1094      1092      1093      1096      1094      1092      1093      1097
      1101      1102      1103      1105      1101      1102      1103      1106
      1101      1102      1103      1107      1101      1102      1104      1108
      1101      1102      1104      1109      1101      1102      1104      1110
      1103      1102      1104      1108      1103      1102      1104      1109
      1103      1102      1104      1110      1104      1102      1103      1105
      1104      1102      1103      1106      1104      1102      1103      1107
      1111      1112      1113      1115      1111      1112      1113      1116
      1111      1112      1113      1117      1111      1112      1114      1118
      1111      1112      1114      1119      1111      1112      1114      1120
      1113      1112      1114      1118      1113      1112      1114      1119
      1113      1112      1114      1120      1114      1112      1113      1115
      1114      1112      1113      1116      1114      1112      1113      1117
      1121      1122      1123      1125      1121      1122      1123      1126
      1121      1122      1123      1127      1121      1122      1124      1128
      1121      1122      1124      1129      1121      1122      1124      1130
      1123      1122      1124      1128      1123      1122      1124      1129
      1123      1122      1124      1130      1124      1122      1123      1125
      1124      1122      1123      1126      1124      1122      1123      1127
      1131      1132      1133      1135      1131      1132      1133      1136
      1131      1132      1133      1137      1131      1132      1134      1138
      1131      1132      1134      1139      1131      1132      1134      1140
      1133      1132      1134      1138      1133      1132      1134      1139
      1133      1132      1134      1140      1134      1132      1133      1135
      1134      1132      1133      1136      1134      1132      1133      1137
      1141      1142      1143      1145      1141      1142      1143      1146
      1141      1142      1143      1147      1141      1142      1144      1148
      1141      1142      1144      1149      1141      1142      1144      1150
      1143      1142      1144      1148      1143      1142      1144      1149
      1143      1142      1144      1150      1144      1142      1143      1145
      1144      1142      1143      1146      1144      1142      1143      1147
      1151      1152      1153      1155      1151      1152      1153      1156
      1151      1152      1153      1157      1151      1152      1154      1158
      1151      1152      1154      1159      1151      1152      1154      1160
      1153      1152      1154      1158      1153      1152      1154      1159
      1153      1152      1154      1160      1154      1152      1153      1155
      1154      1152      1153      1156      1154      1152      1153      1157
      1161      1162      1163      1165      1161      1162      1163      1166
      1161      1162      1163      1167      1161      1162      1164      1168
      1161      1162      1164      1169      1161      1162      1164      1170
      1163      1162      1164      1168      1163      1162      1164      1169
      1163      1162      1164      1170      1164      1162      1163      1165
      1164      1162      1163      1166      1164      1162      1163      1167
      1171      1172      1173      1175      1171      1172      1173      1176
      1171      1172      1173      1177      1171      1172      1174      1178
      1171      1172      1174      1179      1171      1172      1174      1180
      1173      1172      1174      1178      1173      1172      1174      1179
      1173      1172      1174      1180      1174      1172      1173      1175
      1174      1172      1173      1176      1174      1172      1173      1177
      1181      1182      1183      1185      1181      1182      1183      1186
      1181      1182      1183      1187      1181      1182      1184      1188
      1181      1182      1184      1189      1181      1182      1184      1190
      1183      1182      1184      1188      1183      1182      1184      1189
      1183      1182      1184      1190      1184      1182      1183      1185
      1184      1182      1183      1186      1184      1182      1183      1187
      1191      1192      1193      1195      1191      1192      1193      1196
      1191      1192      1193      1197      1191      1192      1194      1198
      1191      1192      1194      1199      1191      1192      1194      1200
      1193      1192      1194      1198      1193      1192      1194      1199
      1193      1192      1194      1200      1194      1192      1193      1195
      1194      1192      1193      1196      1194      1192      1193      1197
      1201      1202      1203      1205      1201      1202      1203      1206
      1201      1202      1203      1207      1201      1202      1204      1208
      1201      1202      1204      1209      1201      1202      1204      1210
      1203      1202      1204      1208      1203      1202      1204      1209
      1203      1202      1204      1210      1204      1202      1203      1205
      1204      1202      1203      1206      1204      1202      1203      1207
      1211      1212      1213      1215      1211      1212      1213      1216
      1211      1212      1213      1217      1211      1212      1214      1218
      1211      1212      1214      1219      1211      1212      1214      1220
      1213      1212      1214      1218      1213      1212      1214      1219
      1213      1212      1214      1220      1214      1212      1213      1215
      1214      1212      1213      1216      1214      1212      1213      1217
      1221      1222      1223      1225      1221      1222      1223      1226
      1221      1222      1223      1227      1221      1222      1224      1228
      1221      1222      1224      1229      1221      1222      1224      1230
      1223      1222      1224      1228      1223      1222      1224      1229
      1223      1222      1224      1230      1224      1222      1223      1225
      1224      1222      1223      1226      1224      1222      1223      1227
      1231      1232      1233      1235      1231      1232      1233      1236
      1231      1232      1233      1237      1231      1232      1234      1238
      1231      1232      1234      1239      1231      1232      1234      1240
      1233      1232      1234      1238      1233      1232      1234      1239
      1233      1232      1234      1240      1234      1232      1233      1235
      1234      1232      1233      1236      1234      1232      1233      1237
      1241      1242      1243      1245      1241      1242      1243      1246
      1241      1242      1243      1247      1241      1242      1244      1248
      1241      1242      1244      1249      1241      1242      1244      1250
      1243      1242      1244      1248      1243      1242      1244      1249
      1243      1242      1244      1250      1244      1242      1243      1245
      1244      1242      1243      1246      1244      1242      1243      1247
      1251      1252      1253      1255      1251      1252      1253      1256
      1251      1252      1253      1257      1251      1252      1254      1258
      1251      1252      1254      1259      1251      1252      1254      1260
      1253      1252      1254      1258      1253      1252      1254      1259
      1253      1252      1254      1260      1254      1252      1253      1255
      1254      1252      1253      1256      1254      1252      1253      1257
      1261      1262      1263      1265      1261      1262      1263      1266
      1261      1262      1263      1267      1261      1262      1264      1268
      1261      1262      1264      1269      1261      1262      1264      1270
      1263      1262      1264      1268      1263      1262      1264      1269
      1263      1262      1264      1270      1264      1262      1263      1265
      1264      1262      1263      1266      1264      1262      1263      1267
      1271      1272      1273      1275      1271      1272      1273      1276
      1271      1272      1273      1277      1271      1272      1274      1278
      1271      1272      1274      1279      1271      1272      1274      1280
      1273      1272      1274      1278      1273      1272      1274      1279
      1273      1272      1274      1280      1274      1272      1273      1275
      1274      1272      1273      1276      1274      1272      1273      1277
      1281      1282      1283      1285      1281      1282      1283      1286
      1281      1282      1283      1287      1281      1282      1284      1288
      1281      1282      1284      1289      1281      1282      1284      1290
      1283      1282      1284      1288      1283      1282      1284      1289
      1283      1282      1284      1290      1284      1282      1283      1285
      1284      1282      1283      1286      1284      1282      1283      1287
      1291      1292      1293      1295      1291      1292      1293      1296
      1291      1292      1293      1297      1291      1292      1294      1298
      1291      1292      1294      1299      1291      1292      1294      1300
      1293      1292      1294      1298      1293      1292      1294      1299
      1293      1292      1294      1300      1294      1292      1293      1295
      1294      1292      1293      1296      1294      1292      1293      1297
      1301      1302      1303      1305      1301      1302      1303      1306
      1301      1302      1303      1307      1301      1302      1304      1308
      1301      1302      1304      1309      1301      1302      1304      1310
      1303      1302      1304      1308      1303      1302      1304      1309
      1303      1302      1304      1310      1304      1302      1303      1305
      1304      1302      1303      1306      1304      1302      1303      1307
      1311      1312      1313      1315      1311      1312      1313      1316
      1311      1312      1313      1317      1311      1312      1314      1318
      1311      1312      1314      1319      1311      1312      1314      1320
      1313      1312      1314      1318      1313      1312      1314      1319
      1313      1312      1314      1320      1314      1312      1313      1315
      1314      1312      1313      1316      1314      1312      1313      1317
      1321      1322      1323      1325      1321      1322      1323      1326
      1321      1322      1323      1327      1321      1322      1324      1328
      1321      1322      1324      1329      1321      1322      1324      1330
      1323      1322      1324      1328      1323      1322      1324      1329
      1323      1322      1324      1330      1324      1322      1323      1325
      1324      1322      1323      1326      1324      1322      1323      1327
      1331      1332      1333      1335      1331      1332      1333      1336
      1331      1332      1333      1337      1331      1332      1334      1338
      1331      1332      1334      1339      1331      1332      1334      1340
      1333      1332      1334      1338      1333      1332      1334      1339
      1333      1332      1334      1340      1334      1332      1333      1335
      1334      1332      1333      1336      1334      1332      1333      1337
      1341      1342      1343      1345      1341      1342      1343      1346
      1341      1342      1343      1347      1341      1342      1344      1348
      1341      1342      1344      1349      1341      1342      1344      1350
      1343      1342      1344      1348      1343      1342      1344      1349
      1343      1342      1344      1350      1344      1342      1343      1345
      1344      1342      1343      1346      1344      1342      1343      1347
      1351      1352      1353      1355      1351      1352      1353      1356
      1351      1352      1353      1357      1351      1352      1354      1358
      1351      1352      1354      1359      1351      1352      1354      1360
      1353      1352      1354      1358      1353      1352      1354      1359
      1353      1352      1354      1360      1354      1352      1353      1355
      1354      1352      1353      1356      1354      1352      1353      1357
      1361      1362      1363      1365      1361      1362      1363      1366
      1361      1362      1363      1367      1361      1362      1364      1368
      1361      1362      1364      1369      1361      1362      1364      1370
      1363      1362      1364      1368      1363      1362      1364      1369
      1363      1362      1364      1370      1364      1362      1363      1365
      1364      1362      1363      1366      1364      1362      1363      1367
      1371      1372      1373      1375      1371      1372      1373      1376
      1371      1372      1373      1377      1371      1372      1374      1378
      1371      1372      1374      1379      1371      1372      1374      1380
      1373      1372      1374      1378      1373      1372      1374      1379
      1373      1372      1374      1380      1374      1372      1373      1375
      1374      1372      1373      1376      1374      1372      1373      1377
      1381      1382      1383      1385      1381      1382      1383      1386
      1381      1382      1383      1387      1381      1382      1384      1388
      1381      1382      1384      1389      1381      1382      1384      1390
      1383      1382      1384      1388      1383      1382      1384      1389
      1383      1382      1384      1390      1384      1382      1383      1385
      1384      1382      1383      1386      1384      1382      1383      1387
      1391      1392      1393      1395      1391      1392      1393      1396
      1391      1392      1393      1397      1391      1392      1394      1398
      1391      1392      1394      1399      1391      1392      1394      1400
      1393      1392      1394      1398      1393      1392      1394      1399
      1393      1392      1394      1400      1394      1392      1393      1395
      1394      1392      1393      1396      1394      1392      1393      1397
      1401      1402      1403      1405      1401      1402      1403      1406
      1401      1402      1403      1407      1401      1402      1404      1408
      1401      1402      1404      1409      1401      1402      1404      1410
      1403      1402      1404      1408      1403      1402      1404      1409
      1403      1402      1404      1410      1404      1402      1403      1405
      1404      1402      1403      1406      1404      1402      1403      1407
      1411      1412      1413      1415      1411      1412      1413      1416
      1411      1412      1413      1417      1411      1412      1414      1418
      1411      1412      1414      1419      1411      1412      1414      1420
      1413      1412      1414      1418      1413      1412      1414      1419
      1413      1412      1414      1420      1414      1412      1413      1415
      1414      1412      1413      1416      1414      1412      1413      1417
      1421      1422      1423      1425      1421      1422      1423      1426
      1421      1422      1423      1427      1421      1422      1424      1428
      1421      1422      1424      1429      1421      1422      1424      1430
      1423      1422      1424      1428      1423      1422      1424      1429
      1423      1422      1424      1430      1424      1422      1423      1425
      1424      1422      1423      1426      1424      1422      1423      1427
      1431      1432      1433      1435      1431      1432      1433      1436
      1431      1432      1433      1437      1431      1432      1434      1438
      1431      1432      1434      1439      1431      1432      1434      1440
      1433      1432      1434      1438      1433      1432      1434      1439
      1433      1432      1434      1440      1434      1432      1433      1435
      1434      1432      1433      1436      1434      1432      1433      1437
      1441      1442      1443      1445      1441      1442      1443      1446
      1441      1442      1443      1447      1441      1442      1444      1448
      1441      1442      1444      1449      1441      1442      1444      1450
      1443      1442      1444      1448      1443      1442      1444      1449
      1443      1442      1444      1450      1444      1442      1443      1445
      1444      1442      1443      1446      1444      1442      1443      1447
      1451      1452      1453      1455      1451      1452      1453      1456
      1451      1452      1453      1457      1451      1452      1454      1458
      1451      1452      1454      1459      1451      1452      1454      1460
      1453      1452      1454      1458      1453      1452      1454      1459
      1453      1452      1454      1460      1454      1452      1453      1455
      1454      1452      1453      1456      1454      1452      1453      1457
      1461      1462      1463      1465      1461      1462      1463      1466
      1461      1462      1463      1467      1461      1462      1464      1468
      1461      1462      1464      1469      1461      1462      1464      1470
      1463      1462      1464      1468      1463      1462      1464      1469
      1463      1462      1464      1470      1464      1462      1463      1465
      1464      1462      1463      1466      1464      1462      1463      1467
      1471      1472      1473      1475      1471      1472      1473      1476
      1471      1472      1473      1477      1471      1472      1474      1478
      1471      1472      1474      1479      1471      1472      1474      1480
      1473      1472      1474      1478      1473      1472      1474      1479
      1473      1472      1474      1480      1474      1472      1473      1475
      1474      1472      1473      1476      1474      1472      1473      1477
      1481      1482      1483      1485      1481      1482      1483      1486
      1481      1482      1483      1487      1481      1482      1484      1488
      1481      1482      1484      1489      1481      1482      1484      1490
      1483      1482      1484      1488      1483      1482      1484      1489
      1483      1482      1484      1490      1484      1482      1483      1485
      1484      1482      1483      1486      1484      1482      1483      1487
      1491      1492      1493      1495      1491      1492      1493      1496
      1491      1492      1493      1497      1491      1492      1494      1498
      1491      1492      1494      1499      1491      1492      1494      1500
      1493      1492      1494      1498      1493      1492      1494      1499
      1493      1492      1494      1500      1494      1492      1493      1495
      1494      1492      1493      1496      1494      1492      1493      1497
      1501      1502      1503      1505      1501      1502      1503      1506
      1501      1502      1503      1507      1501      1502      1504      1508
      1501      1502      1504      1509      1501      1502      1504      1510
      1503      1502      1504      1508      1503      1502      1504      1509
      1503      1502      1504      1510      1504      1502      1503      1505
      1504      1502      1503      1506      1504      1502      1503      1507
      1511      1512      1513      1515      1511      1512      1513      1516
      1511      1512      1513      1517      1511      1512      1514      1518
      1511      1512      1514      1519      1511      1512      1514      1520
      1513      1512      1514      1518      1513      1512      1514      1519
      1513      1512      1514      1520      1514      1512      1513      1515
      1514      1512      1513      1516      1514      1512      1513      1517
      1521      1522      1523      1525      1521      1522      1523      1526
      1521      1522      1523      1527      1521      1522      1524      1528
      1521      1522      1524      1529      1521      1522      1524      1530
      1523      1522      1524      1528      1523      1522      1524      1529
      1523      1522      1524      1530      1524      1522      1523      1525
      1524      1522      1523      1526      1524      1522      1523      1527
      1531      1532      1533      1535      1531      1532      1533      1536
      1531      1532      1533      1537      1531      1532      1534      1538
      1531      1532      1534      1539      1531      1532      1534      1540
      1533      1532      1534      1538      1533      1532      1534      1539
      1533      1532      1534      1540      1534      1532      1533      1535
      1534      1532      1533      1536      1534      1532      1533      1537
      1541      1542      1543      1545      1541      1542      1543      1546
      1541      1542      1543      1547      1541      1542      1544      1548
      1541      1542      1544      1549      1541      1542      1544      1550
      1543      1542      1544      1548      1543      1542      1544      1549
      1543      1542      1544      1550      1544      1542      1543      1545
      1544      1542      1543      1546      1544      1542      1543      1547
      1551      1552      1553      1555      1551      1552      1553      1556
      1551      1552      1553      1557      1551      1552      1554      1558
      1551      1552      1554      1559      1551      1552      1554      1560
      1553      1552      1554      1558      1553      1552      1554      1559
      1553      1552      1554      1560      1554      1552      1553      1555
      1554      1552      1553      1556      1554      1552      1553      1557
      1561      1562      1563      1565      1561      1562      1563      1566
      1561      1562      1563      1567      1561      1562      1564      1568
      1561      1562      1564      1569      1561      1562      1564      1570
      1563      1562      1564      1568      1563      1562      1564      1569
      1563      1562      1564      1570      1564      1562      1563      1565
      1564      1562      1563      1566      1564      1562      1563      1567
      1571      1572      1573      1575      1571      1572      1573      1576
      1571      1572      1573      1577      1571      1572      1574      1578
      1571      1572      1574      1579      1571      1572      1574      1580
      1573      1572      1574      1578      1573      1572      1574      1579
      1573      1572      1574      1580      1574      1572      1573      1575
      1574      1572      1573      1576      1574      1572      1573      1577
      1581      1582      1583      1585      1581      1582      1583      1586
      1581      1582      1583      1587      1581      1582      1584      1588
      1581      1582      1584      1589      1581      1582      1584      1590
      1583      1582      1584      1588      1583      1582      1584      1589
      1583      1582      1584      1590      1584      1582      1583      1585
      1584      1582      1583      1586      1584      1582      1583      1587
      1591      1592      1593      1595      1591      1592      1593      1596
      1591      1592      1593      1597      1591      1592      1594      1598
      1591      1592      1594      1599      1591      1592      1594      1600
      1593      1592      1594      1598      1593      1592      1594      1599
      1593      1592      1594      1600      1594      1592      1593      1595
      1594      1592      1593      1596      1594      1592      1593      1597
      1601      1602      1603      1605      1601      1602      1603      1606
      1601      1602      1603      1607      1601      1602      1604      1608
      1601      1602      1604      1609      1601      1602      1604      1610
      1603      1602      1604      1608      1603      1602      1604      1609
      1603      1602      1604      1610      1604      1602      1603      1605
      1604      1602      1603      1606      1604      1602      1603      1607
      1611      1612      1613      1615      1611      1612      1613      1616
      1611      1612      1613      1617      1611      1612      1614      1618
      1611      1612      1614      1619      1611      1612      1614      1620
      1613      1612      1614      1618      1613      1612      1614      1619
      1613      1612      1614      1620      1614      1612      1613      1615
      1614      1612      1613      1616      1614      1612      1613      1617
      1621      1622      1623      1625      1621      1622      1623      1626
      1621      1622      1623      1627      1621      1622      1624      1628
      1621      1622      1624      1629      1621      1622      1624      1630
      1623      1622      1624      1628      1623      1622      1624      1629
      1623      1622      1624      1630      1624      1622      1623      1625
      1624      1622      1623      1626      1624      1622      1623      1627
      1631      1632      1633      1635      1631      1632      1633      1636
      1631      1632      1633      1637      1631      1632      1634      1638
      1631      1632      1634      1639      1631      1632      1634      1640
      1633      1632      1634      1638      1633      1632      1634      1639
      1633      1632      1634      1640      1634      1632      1633      1635
      1634      1632      1633      1636      1634      1632      1633      1637
      1641      1642      1643      1645      1641      1642      1643      1646
      1641      1642      1643      1647      1641      1642      1644      1648
      1641      1642      1644      1649      1641      1642      1644      1650
      1643      1642      1644      1648      1643      1642      1644      1649
      1643      1642      1644      1650      1644      1642      1643      1645
      1644      1642      1643      1646      1644      1642      1643      1647
      1651      1652      1653      1655      1651      1652      1653      1656
      1651      1652      1653      1657      1651      1652      1654      1658
      1651      1652      1654      1659      1651      1652      1654      1660
      1653      1652      1654      1658      1653      1652      1654      1659
      1653      1652      1654      1660      1654      1652      1653      1655
      1654      1652      1653      1656      1654      1652      1653      1657
      1661      1662      1663      1665      1661      1662      1663      1666
      1661      1662      1663      1667      1661      1662      1664      1668
      1661      1662      1664      1669      1661      1662      1664      1670
      1663      1662      1664      1668      1663      1662      1664      1669
      1663      1662      1664      1670      1664      1662      1663      1665
      1664      1662      1663      1666      1664      1662      1663      1667
      1671      1672      1673      1675      1671      1672      1673      1676
      1671      1672      1673      1677      1671      1672      1674      1678
      1671      1672      1674      1679      1671      1672      1674      1680
      1673      1672      1674      1678      1673      1672      1674      1679
      1673      1672      1674      1680      1674      1672      1673      1675
      1674      1672      1673      1676      1674      1672      1673      1677
      1681      1682      1683      1685      1681      1682      1683      1686
      1681      1682      1683      1687      1681      1682      1684      1688
      1681      1682      1684      1689      1681      1682      1684      1690
      1683      1682      1684      1688      1683      1682      1684      1689
      1683      1682      1684      1690      1684      1682      1683      1685
      1684      1682      1683      1686      1684      1682      1683      1687
      1691      1692      1693      1695      1691      1692      1693      1696
      1691      1692      1693      1697      1691      1692      1694      1698
      1691      1692      1694      1699      1691      1692      1694      1700
      1693      1692      1694      1698      1693      1692      1694      1699
      1693      1692      1694      1700      1694      1692      1693      1695
      1694      1692      1693      1696      1694      1692      1693      1697
      1701      1702      1703      1705      1701      1702      1703      1706
      1701      1702      1703      1707      1701      1702      1704      1708
      1701      1702      1704      1709      1701      1702      1704      1710
      1703      1702      1704      1708      1703      1702      1704      1709
      1703      1702      1704      1710      1704      1702      1703      1705
      1704      1702      1703      1706      1704      1702      1703      1707
      1711      1712      1713      1715      1711      1712      1713      1716
      1711      1712      1713      1717      1711      1712      1714      1718
      1711      1712      1714      1719      1711      1712      1714      1720
      1713      1712      1714      1718      1713      1712      1714      1719
      1713      1712      1714      1720      1714      1712      1713      1715
      1714      1712      1713      1716      1714      1712      1713      1717
      1721      1722      1723      1725      1721      1722      1723      1726
      1721      1722      1723      1727      1721      1722      1724      1728
      1721      1722      1724      1729      1721      1722      1724      1730
      1723      1722      1724      1728      1723      1722      1724      1729
      1723      1722      1724      1730      1724      1722      1723      1725
      1724      1722      1723      1726      1724      1722      1723      1727
      1731      1732      1733      1735      1731      1732      1733      1736
      1731      1732      1733      1737      1731      1732      1734      1738
      1731      1732      1734      1739      1731      1732      1734      1740
      1733      1732      1734      1738      1733      1732      1734      1739
      1733      1732      1734      1740      1734      1732      1733      1735
      1734      1732      1733      1736      1734      1732      1733      1737
      1741      1742      1743      1745      1741      1742      1743      1746
      1741      1742      1743      1747      1741      1742      1744      1748
      1741      1742      1744      1749      1741      1742      1744      1750
      1743      1742      1744      1748      1743      1742      1744      1749
      1743      1742      1744      1750      1744      1742      1743      1745
      1744      1742      1743      1746      1744      1742      1743      1747
      1751      1752      1753      1755      1751      1752      1753      1756
      1751      1752      1753      1757      1751      1752      1754      1758
      1751      1752      1754      1759      1751      1752      1754      1760
      1753      1752      1754      1758      1753      1752      1754      1759
      1753      1752      1754      1760      1754      1752      1753      1755
      1754      1752      1753      1756      1754      1752      1753      1757
      1761      1762      1763      1765      1761      1762      1763      1766
      1761      1762      1763      1767      1761      1762      1764      1768
      1761      1762      1764      1769      1761      1762      1764      1770
      1763      1762      1764      1768      1763      1762      1764      1769
      1763      1762      1764      1770      1764      1762      1763      1765
      1764      1762      1763      1766      1764      1762      1763      1767
      1771      1772      1773      1775      1771      1772      1773      1776
      1771      1772      1773      1777      1771      1772      1774      1778
      1771      1772      1774      1779      1771      1772      1774      1780
      1773      1772      1774      1778      1773      1772      1774      1779
      1773      1772      1774      1780      1774      1772      1773      1775
      1774      1772      1773      1776      1774      1772      1773      1777

       178 !NIMPHI: impropers
         2         3         4         1        12        13        14        11
        22        23        24        21        32        33        34        31
        42        43        44        41        52        53        54        51
        62        63        64        61        72        73        74        71
        82        83        84        81        92        93        94        91
       102       103       104       101       112       113       114       111
       122       123       124       121       132       133       134       131
       142       143       144       141       152       153       154       151
       162       163       164       161       172       173       174       171
       182       183       184       181       192       193       194       191
       202       203       204       201       212       213       214       211
       222       223       224       221       232       233       234       231
       242       243       244       241       252       253       254       251
       262       263       264       261       272       273       274       271
       282       283       284       281       292       293       294       291
       302       303       304       301       312       313       314       311
       322       323       324       321       332       333       334       331
       342       343       344       341       352       353       354       351
       362       363       364       361       372       373       374       371
       382       383       384       381       392       393       394       391
       402       403       404       401       412       413       414       411
       422       423       424       421       432       433       434       431
       442       443       444       441       452       453       454       451
       462       463       464       461       472       473       474       471
       482       483       484       481       492       493       494       491
       502       503       504       501       512       513       514       511
       522       523       524       521       532       533       534       531
       542       543       544       541       552       553       554       551
       562       563       564       561       572       573       574       571
       582       583       584       581       592       593       594       591
       602       603       604       601       612       613       614       611
       622       623       624       621       632       633       634       631
       642       643       644       641       652       653       654       651
       662       663       664       661       672       673       674       671
       682       683       684       681       692       693       694       691
       702       703       704       701       712       713       714       711
       722       723       724       721       732       733       734       731
       742       743       744       741       752       753       754       751
       762       763       764       761       772       773       774       771
       782       783       784       781       792       793       794       791
       802       803       804       801       812       813       814       811
       822       823       824       821       832       833       834       831
       842       843       844       841       852       853       854       851
       862       863       864       861       872       873       874       871
       882       883       884       881       892       893       894       891
       902       903       904       901       912       913       914       911
       922       923       924       921       932       933       934       931
       942       943       944       941       952       953       954       951
       962       963       964       961       972       973       974       971
       982       983       984       981       992       993       994       991
      1002      1003      1004      1001      1012      1013      1014      1011
      1022      1023      1024      1021      1032      1033      1034      1031
      1042      1043      1044      1041      1052      1053      1054      1051
      1062      1063      1064      1061      1072      1073      1074      1071
      1082      1083      1084      1081      1092      1093      1094      1091
      1102      1103      1104      1101      1112      1113      1114      1111
      1122      1123      1124      1121      1132      1133      1134      1131
      1142      1143      1144      1141      1152      1153      1154      1151
      1162      1163      1164      1161      1172      1173      1174      1171
      1182      1183      1184      1181      1192      1193      1194      1191
      1202      1203      1204      1201      1212      1213      1214      1211
      1222      1223      1224      1221      1232      1233      1234      1231
      1242      1243      1244      1241      1252      1253      1254      1251
      1262      1263      1264      1261      1272      1273      1274      1271
      1282      1283      1284      1281      1292      1293      1294      1291
      1302      1303      1304      1301      1312      1313      1314      1311
      1322      1323      1324      1321      1332      1333      1334      1331
      1342      1343      1344      1341      1352      1353      1354      1351
      1362      1363      1364      1361      1372      1373      1374      1371
      1382      1383      1384      1381      1392      1393      1394      1391
      1402      1403      1404      1401      1412      1413      1414      1411
      1422      1423      1424      1421      1432      1433      1434      1431
      1442      1443      1444      1441      1452      1453      1454      1451
      1462      1463      1464      1461      1472      1473      1474      1471
      1482      1483      1484      1481      1492      1493      1494      1491
      1502      1503      1504      1501      1512      1513      1514      1511
      1522      1523      1524      1521      1532      1533      1534      1531
      1542      1543      1544      1541      1552      1553      1554      1551
      1562      1563      1564      1561      1572      1573      1574      1571
      1582      1583      1584      1581      1592      1593      1594      1591
      1602      1603      1604      1601      1612      1613      1614      1611
      1622      1623      1624      1621      1632      1633      1634      1631
      1642      1643      1644      1641      1652      1653      1654      1651
      1662      1663      1664      1661      1672      1673      1674      1671
      1682      1683      1684      1681      1692      1693      1694      1691
      1702      1703      1704      1701      1712      1713      1714      1711
      1722      1723      1724      1721      1732      1733      1734      1731
      1742      1743      1744      1741      1752      1753      1754      1751
      1762      1763      1764      1761      1772      1773      1774      1771

         0 !NDON: donors


       178 !NACC: acceptors
         1         0        11         0        21         0        31         0
        41         0        51         0        61         0        71         0
        81         0        91         0       101         0       111         0
       121         0       131         0       141         0       151         0
       161         0       171         0       181         0       191         0
       201         0       211         0       221         0       231         0
       241         0       251         0       261         0       271         0
       281         0       291         0       301         0       311         0
       321         0       331         0       341         0       351         0
       361         0       371         0       381         0       391         0
       401         0       411         0       421         0       431         0
       441         0       451         0       461         0       471         0
       481         0       491         0       501         0       511         0
       521         0       531         0       541         0       551         0
       561         0       571         0       581         0       591         0
       601         0       611         0       621         0       631         0
       641         0       651         0       661         0       671         0
       681         0       691         0       701         0       711         0
       721         0       731         0       741         0       751         0
       761         0       771         0       781         0       791         0
       801         0       811         0       821         0       831         0
       841         0       851         0       861         0       871         0
       881         0       891         0       901         0       911         0
       921         0       931         0       941         0       951         0
       961         0       971         0       981         0       991         0
      1001         0      1011         0      1021         0      1031         0
      1041         0      1051         0      1061         0      1071         0
      1081         0      1091         0      1101         0      1111         0
      1121         0      1131         0      1141         0      1151         0
      1161         0      1171         0      1181         0      1191         0
      1201         0      1211         0      1221         0      1231         0
      1241         0      1251         0      1261         0      1271         0
      1281         0      1291         0      1301         0      1311         0
      1321         0      1331         0      1341         0      1351         0
      1361         0      1371         0      1381         0      1391         0
      1401         0      1411         0      1421         0      1431         0
      1441         0      1451         0      1461         0      1471         0
      1481         0      1491         0      1501         0      1511         0
      1521         0      1531         0      1541         0      1551         0
      1561         0      1571         0      1581         0      1591         0
      1601         0      1611         0      1621         0      1631         0
      1641         0      1651         0      1661         0      1671         0
      1681         0      1691         0      1701         0      1711         0
      1721         0      1731         0      1741         0      1751         0
      1761         0      1771         0

         0 !NNB

         0         0         0         0         0         0         0         0
         0         0         0         0         0         0         0         0
         0         0         0         0         0         0         0         0
         0         0         0         0         0         0         0         0
         0         0         0         0         0         0         0         0
         0         0         0         0         0         0         0         0
         0         0         0         0         0         0         0         0
         0         0         0         0         0         0         0         0
         0         0         0         0         0         0         0         0
         0         0         0         0         0         0         0         0
         0         0         0         0         0         0         0         0
         0         0         0         0         0         0         0         0
         0         0         0         0         0         0         0         0
         0         0         0         0         0         0         0         0
         0         0         0         0         0         0         0         0
         0         0         0         0         0         0         0         0
         0         0         0         0         0         0         0         0
         0         0         0         0         0         0         0         0
         0         0         0         0         0         0         0         0
         0         0         0         0         0         0         0         0
         0         0         0         0         0         0         0         0
         0         0         0         0         0         0         0         0
         0         0         0         0         0         0         0         0
         0         0         0         0         0         0         0         0
         0         0         0         0         0         0         0         0
         0         0         0         0         0         0         0         0
         0         0         0         0         0         0         0         0
         0         0         0         0         0         0         0         0
         0         0         0         0         0         0         0         0
         0         0         0         0         0         0         0         0
         0         0         0         0         0         0         0         0
         0         0         0         0         0         0         0         0
         0         0         0         0         0         0         0         0
         0         0         0         0         0         0         0         0
         0         0         0         0         0         0         0         0
         0         0         0         0         0         0         0         0
         0         0         0         0         0         0         0         0
         0         0         0         0         0         0         0         0
         0         0         0         0         0         0         0         0
         0         0         0         0         0         0         0         0
         0         0         0         0         0         0         0         0
         0         0         0         0         0         0         0         0
         0         0         0         0         0         0         0         0
         0         0         0         0         0         0         0         0
         0         0         0         0         0         0         0         0
         0         0         0         0         0         0         0         0
         0         0         0         0         0         0         0         0
         0         0         0         0         0         0         0         0
         0         0         0         0         0         0         0         0
         0         0         0         0         0         0         0         0
         0         0         0         0         0         0         0         0
         0         0         0         0         0         0         0         0
         0         0         0         0         0         0         0         0
         0         0         0         0         0         0         0         0
         0         0         0         0         0         0         0         0
         0         0         0         0         0         0         0         0
         0         0         0         0         0         0         0         0
         0         0         0         0         0         0         0         0
         0         0         0         0         0         0         0         0
         0         0         0         0         0         0         0         0
         0         0         0         0         0         0         0         0
         0         0         0         0         0         0         0         0
         0         0         0         0         0         0         0         0
         0         0         0         0         0         0         0         0
         0         0         0         0         0         0         0         0
         0         0         0         0         0         0         0         0
         0         0         0         0         0         0         0         0
         0         0         0         0         0         0         0         0
         0         0         0         0         0         0         0         0
         0         0         0         0         0         0         0         0
         0         0         0         0         0         0         0         0
         0         0         0         0         0         0         0         0
         0         0         0         0         0         0         0         0
         0         0         0         0         0         0         0         0
         0         0         0         0         0         0         0         0
         0         0         0         0         0         0         0         0
         0         0         0         0         0         0         0         0
         0         0         0         0         0         0         0         0
         0         0         0         0         0         0         0         0
         0         0         0         0         0         0         0         0
         0         0         0         0         0         0         0         0
         0         0         0         0         0         0         0         0
         0         0         0         0         0         0         0         0
         0         0         0         0         0         0         0         0
         0         0         0         0         0         0         0         0
         0         0         0         0         0         0         0         0
         0         0         0         0         0         0         0         0
         0         0         0         0         0         0         0         0
         0         0         0         0         0         0         0         0
         0         0         0         0         0         0         0         0
         0         0         0         0         0         0         0         0
         0         0         0         0         0         0         0         0
         0         0         0         0         0         0         0         0
         0         0         0         0         0         0         0         0
         0         0         0         0         0         0         0         0
         0         0         0         0         0         0         0         0
         0         0         0         0         0         0         0         0
         0         0         0         0         0         0         0         0
         0         0         0         0         0         0         0         0
         0         0         0         0         0         0         0         0
         0         0         0         0         0         0         0         0
         0         0         0         0         0         0         0         0
         0         0         0         0         0         0         0         0
         0         0         0         0         0         0         0         0
         0         0         0         0         0         0         0         0
         0         0         0         0         0         0         0         0
         0         0         0         0         0         0         0         0
         0         0         0         0         0         0         0         0
         0         0         0         0         0         0         0         0
         0         0         0         0         0         0         0         0
         0         0         0         0         0         0         0         0
         0         0         0         0         0         0         0         0
         0         0         0         0         0         0         0         0
         0         0         0         0         0         0         0         0
         0         0         0         0         0         0         0         0
         0         0         0         0         0         0         0         0
         0         0         0         0         0         0         0         0
         0         0         0         0         0         0         0         0
         0         0         0         0         0         0         0         0
         0         0         0         0         0         0         0         0
         0         0         0         0         0         0         0         0
         0         0         0         0         0         0         0         0
         0         0         0         0         0         0         0         0
         0         0         0         0         0         0         0         0
         0         0         0         0         0         0         0         0
         0         0         0         0         0         0         0         0
         0         0         0         0         0         0         0         0
         0         0         0         0         0         0         0         0
         0         0         0         0         0         0         0         0
         0         0         0         0         0         0         0         0
         0         0         0         0         0         0         0         0
         0         0         0         0         0         0         0         0
         0         0         0         0         0         0         0         0
         0         0         0         0         0         0         0         0
         0         0         0         0         0         0         0         0
         0         0         0         0         0         0         0         0
         0         0         0         0         0         0         0         0
         0         0         0         0         0         0         0         0
         0         0         0         0         0         0         0         0
         0         0         0         0         0         0         0         0
         0         0         0         0         0         0         0         0
         0         0         0         0         0         0         0         0
         0         0         0         0         0         0         0         0
         0         0         0         0         0         0         0         0
         0         0         0         0         0         0         0         0
         0         0         0         0         0         0         0         0
         0         0         0         0         0         0         0         0
         0         0         0         0         0         0         0         0
         0         0         0         0         0         0         0         0
         0         0         0         0         0         0         0         0
         0         0         0         0         0         0         0         0
         0         0         0         0         0         0         0         0
         0         0         0         0         0         0         0         0
         0         0         0         0         0         0         0         0
         0         0         0         0         0         0         0         0
         0         0         0         0         0         0         0         0
         0         0         0         0         0         0         0         0
         0         0         0         0         0         0         0         0
         0         0         0         0         0         0         0         0
         0         0         0         0         0         0         0         0
         0         0         0         0         0         0         0         0
         0         0         0         0         0         0         0         0
         0         0         0         0         0         0         0         0
         0         0         0         0         0         0         0         0
         0         0         0         0         0         0         0         0
         0         0         0         0         0         0         0         0
         0         0         0         0         0         0         0         0
         0         0         0         0         0         0         0         0
         0         0         0         0         0         0         0         0
         0         0         0         0         0         0         0         0
         0         0         0         0         0         0         0         0
         0         0         0         0         0         0         0         0
         0         0         0         0         0         0         0         0
         0         0         0         0         0         0         0         0
         0         0         0         0         0         0         0         0
         0         0         0         0         0         0         0         0
         0         0         0         0         0         0         0         0
         0         0         0         0         0         0         0         0
         0         0         0         0         0         0         0         0
         0         0         0         0         0         0         0         0
         0         0         0         0         0         0         0         0
         0         0         0         0         0         0         0         0
         0         0         0         0         0         0         0         0
         0         0         0         0         0         0         0         0
         0         0         0         0         0         0         0         0
         0         0         0         0         0         0         0         0
         0         0         0         0         0         0         0         0
         0         0         0         0         0         0         0         0
         0         0         0         0         0         0         0         0
         0         0         0         0         0         0         0         0
         0         0         0         0         0         0         0         0
         0         0         0         0         0         0         0         0
         0         0         0         0         0         0         0         0
         0         0         0         0         0         0         0         0
         0         0         0         0         0         0         0         0
         0         0         0         0         0         0         0         0
         0         0         0         0         0         0         0         0
         0         0         0         0         0         0         0         0
         0         0         0         0         0         0         0         0
         0         0         0         0         0         0         0         0
         0         0         0         0         0         0         0         0
         0         0         0         0         0         0         0         0
         0         0         0         0         0         0         0         0
         0         0         0         0         0         0         0         0
         0         0         0         0         0         0         0         0
         0         0         0         0         0         0         0         0
         0         0         0         0         0         0         0         0
         0         0         0         0         0         0         0         0
         0         0         0         0         0         0         0         0
         0         0         0         0         0         0         0         0
         0         0         0         0         0         0         0         0
         0         0         0         0         0         0         0         0
         0         0         0         0         0         0         0         0
         0         0         0         0         0         0         0         0
         0         0         0         0         0         0         0         0
         0         0         0         0         0         0         0         0
         0         0         0         0         0         0         0         0
         0         0         0         0         0         0         0         0
         0         0         0         0         0         0         0         0
         0         0         0         0         0         0         0         0
         0         0         0         0         0         0         0         0
         0         0         0         0         0         0         0         0
         0         0         0         0

       178         0 !NGRP NST2
         0         1         0        10         1         0        20         1         0
        30         1         0        40         1         0        50         1         0
        60         1         0        70         1         0        80         1         0
        90         1         0       100         1         0       110         1         0
       120         1         0       130         1         0       140         1         0
       150         1         0       160         1         0       170         1         0
       180         1         0       190         1         0       200         1         0
       210         1         0       220         1         0       230         1         0
       240         1         0       250         1         0       260         1         0
       270         1         0       280         1         0       290         1         0
       300         1         0       310         1         0       320         1         0
       330         1         0       340         1         0       350         1         0
       360         1         0       370         1         0       380         1         0
       390         1         0       400         1         0       410         1         0
       420         1         0       430         1         0       440         1         0
       450         1         0       460         1         0       470         1         0
       480         1         0       490         1         0       500         1         0
       510         1         0       520         1         0       530         1         0
       540         1         0       550         1         0       560         1         0
       570         1         0       580         1         0       590         1         0
       600         1         0       610         1         0       620         1         0
       630         1         0       640         1         0       650         1         0
       660         1         0       670         1         0       680         1         0
       690         1         0       700         1         0       710         1         0
       720         1         0       730         1         0       740         1         0
       750         1         0       760         1         0       770         1         0
       780         1         0       790         1         0       800         1         0
       810         1         0       820         1         0       830         1         0
       840         1         0       850         1         0       860         1         0
       870         1         0       880         1         0       890         1         0
       900         1         0       910         1         0       920         1         0
       930         1         0       940         1         0       950         1         0
       960         1         0       970         1         0       980         1         0
       990         1         0      1000         1         0      1010         1         0
      1020         1         0      1030         1         0      1040         1         0
      1050         1         0      1060         1         0      1070         1         0
      1080         1         0      1090         1         0      1100         1         0
      1110         1         0      1120         1         0      1130         1         0
      1140         1         0      1150         1         0      1160         1         0
      1170         1         0      1180         1         0      1190         1         0
      1200         1         0      1210         1         0      1220         1         0
      1230         1         0      1240         1         0      1250         1         0
      1260         1         0      1270         1         0      1280         1         0
      1290         1         0      1300         1         0      1310         1         0
      1320         1         0      1330         1         0      1340         1         0
      1350         1         0      1360         1         0      1370         1         0
      1380         1         0      1390         1         0      1400         1         0
      1410         1         0      1420         1         0      1430         1         0
      1440         1         0      1450         1         0      1460         1         0
      1470         1         0      1480         1         0      1490         1         0
      1500         1         0      1510         1         0      1520         1         0
      1530         1         0      1540         1         0      1550         1         0
      1560         1         0      1570         1         0      1580         1         0
      1590         1         0      1600         1         0      1610         1         0
      1620         1         0      1630         1         0      1640         1         0
      1650         1         0      1660         1         0      1670         1         0
      1680         1         0      1690         1         0      1700         1         0
      1710         1         0      1720         1         0      1730         1         0
      1740         1         0      1750         1         0      1760         1         0
      1770         1         0

         0         0 !NUMLP NUMLPH

         0 !NCRTERM: cross-terms

