* pre_mlpot:mc_density_skipped_hold_box
*
        1780  EXT
         1         1  ACO   O1            9.7376685799        5.1033793862       -1.4663699268  CLST           1          1.0000000000
         2         1  ACO   C1           10.1105339282        6.1920186084       -1.0375754406  CLST           1          1.0000000000
         3         1  ACO   C2           11.2859847802        6.9068006655       -1.6131723580  CLST           1          1.0000000000
         4         1  ACO   C3            9.4214661076        6.8680350304        0.0964561195  CLST           1          1.0000000000
         5         1  ACO   H21          11.6689010568        6.3398875910       -2.4857508623  CLST           1          1.0000000000
         6         1  ACO   H22          10.9831597845        7.9229193378       -1.9385687997  CLST           1          1.0000000000
         7         1  ACO   H23          12.0866720526        6.9843272924       -0.8492369029  CLST           1          1.0000000000
         8         1  ACO   H31          10.1375585325        7.0293662623        0.9270468233  CLST           1          1.0000000000
         9         1  ACO   H32           9.0095638855        7.8416984587       -0.2396096708  CLST           1          1.0000000000
        10         1  ACO   H33           8.5974196750        6.2234198413        0.4595886415  CLST           1          1.0000000000
        11         2  ACO   O1            4.7309713101      -12.5730268802        9.8477099688  CLST           2          1.0000000000
        12         2  ACO   C1            4.5909196853      -12.5985144808        8.6295673144  CLST           2          1.0000000000
        13         2  ACO   C2            4.3310298427      -11.3581219381        7.8459805783  CLST           2          1.0000000000
        14         2  ACO   C3            4.6981278047      -13.8668759346        7.8539635653  CLST           2          1.0000000000
        15         2  ACO   H21           3.9901442227      -10.5544266601        8.5302482877  CLST           2          1.0000000000
        16         2  ACO   H22           5.2639428678      -11.0350013253        7.3424970673  CLST           2          1.0000000000
        17         2  ACO   H23           3.5469310981      -11.5427916795        7.0841601185  CLST           2          1.0000000000
        18         2  ACO   H31           3.7228945704      -14.1013301780        7.3811374422  CLST           2          1.0000000000
        19         2  ACO   H32           5.4758801683      -13.7568568388        7.0701288355  CLST           2          1.0000000000
        20         2  ACO   H33           4.9786698214      -14.6908074530        8.5413624944  CLST           2          1.0000000000
        21         3  ACO   O1            9.5346892395        4.8358564580        2.7205935365  CLST           3          1.0000000000
        22         3  ACO   C1            8.7116701133        3.9281852388        2.7855812860  CLST           3          1.0000000000
        23         3  ACO   C2            8.1920200126        3.4280994281        4.0878681373  CLST           3          1.0000000000
        24         3  ACO   C3            8.1826893854        3.2573464183        1.5644045444  CLST           3          1.0000000000
        25         3  ACO   H21           8.5993341608        4.0569902895        4.9058048425  CLST           3          1.0000000000
        26         3  ACO   H22           7.0854433163        3.4873402359        4.1004289779  CLST           3          1.0000000000
        27         3  ACO   H23           8.5078512986        2.3764148909        4.2401328632  CLST           3          1.0000000000
        28         3  ACO   H31           8.5436811357        2.2090941789        1.5337065569  CLST           3          1.0000000000
        29         3  ACO   H32           7.0733743768        3.2684754983        1.5784081925  CLST           3          1.0000000000
        30         3  ACO   H33           8.5467405822        3.7920742084        0.6635390141  CLST           3          1.0000000000
        31         4  ACO   O1           -2.2740499164      -12.1839170164       -7.1960950577  CLST           4          1.0000000000
        32         4  ACO   C1           -2.9597250773      -11.6271138858       -8.0463430692  CLST           4          1.0000000000
        33         4  ACO   C2           -2.4565929135      -10.4539428864       -8.8154575773  CLST           4          1.0000000000
        34         4  ACO   C3           -4.3426295184      -12.0893518107       -8.3580783341  CLST           4          1.0000000000
        35         4  ACO   H21          -1.3811647820      -10.2980934198       -8.5931612828  CLST           4          1.0000000000
        36         4  ACO   H22          -2.5774715270      -10.6357105723       -9.9032012692  CLST           4          1.0000000000
        37         4  ACO   H23          -3.0245156571       -9.5479501049       -8.5250622980  CLST           4          1.0000000000
        38         4  ACO   H31          -5.0682245214      -11.2926354707       -8.0958762348  CLST           4          1.0000000000
        39         4  ACO   H32          -4.4255302510      -12.3264629352       -9.4381340770  CLST           4          1.0000000000
        40         4  ACO   H33          -4.5670751171      -12.9974519065       -7.7621448285  CLST           4          1.0000000000
        41         5  ACO   O1           10.7804767786        8.7372712545        3.8679594149  CLST           5          1.0000000000
        42         5  ACO   C1           11.7560658865        8.7372433971        3.1269625005  CLST           5          1.0000000000
        43         5  ACO   C2           12.3233986565       10.0080961491        2.5952239865  CLST           5          1.0000000000
        44         5  ACO   C3           12.4365019873        7.4730254769        2.7273175856  CLST           5          1.0000000000
        45         5  ACO   H21          11.6974801304       10.8563142473        2.9401493099  CLST           5          1.0000000000
        46         5  ACO   H22          13.3580419111       10.1383471295        2.9731021373  CLST           5          1.0000000000
        47         5  ACO   H23          12.3307430453        9.9805478046        1.4871963203  CLST           5          1.0000000000
        48         5  ACO   H31          12.4822721110        7.4010517023        1.6220458646  CLST           5          1.0000000000
        49         5  ACO   H32          13.4681039280        7.4528578119        3.1344165894  CLST           5          1.0000000000
        50         5  ACO   H33          11.8664066790        6.6051265386        3.1191896088  CLST           5          1.0000000000
        51         6  ACO   O1          -11.7538441444        4.1256904443       13.0464319922  CLST           6          1.0000000000
        52         6  ACO   C1          -10.9741755348        4.3646289057       12.1296843177  CLST           6          1.0000000000
        53         6  ACO   C2          -11.2369236189        5.4561533152       11.1480366025  CLST           6          1.0000000000
        54         6  ACO   C3           -9.7223513848        3.5778011031       11.9496760558  CLST           6          1.0000000000
        55         6  ACO   H21         -11.2563270804        5.0397730758       10.1197749695  CLST           6          1.0000000000
        56         6  ACO   H22         -12.2215785143        5.9115219404       11.3765460529  CLST           6          1.0000000000
        57         6  ACO   H23         -10.4443499075        6.2284119954       11.2217994173  CLST           6          1.0000000000
        58         6  ACO   H31          -9.7682161848        3.0133816338       10.9951279197  CLST           6          1.0000000000
        59         6  ACO   H32          -8.8471189179        4.2597325528       11.9349245436  CLST           6          1.0000000000
        60         6  ACO   H33          -9.6222768740        2.8659149321       12.7934342947  CLST           6          1.0000000000
        61         7  ACO   O1           -7.0061325221       11.8439030711       -6.7635766468  CLST           7          1.0000000000
        62         7  ACO   C1           -6.2739685103       10.8951545638       -7.0311018209  CLST           7          1.0000000000
        63         7  ACO   C2           -4.7926003296       10.9814068542       -6.8882439828  CLST           7          1.0000000000
        64         7  ACO   C3           -6.8141890423        9.5925017248       -7.5168616043  CLST           7          1.0000000000
        65         7  ACO   H21          -4.5207097120       11.9403248919       -6.4013405105  CLST           7          1.0000000000
        66         7  ACO   H22          -4.4211283517       10.1417233129       -6.2650111355  CLST           7          1.0000000000
        67         7  ACO   H23          -4.3169251375       10.9311473895       -7.8881268384  CLST           7          1.0000000000
        68         7  ACO   H31          -6.4724387178        9.4050038431       -8.5554456057  CLST           7          1.0000000000
        69         7  ACO   H32          -6.4589410347        8.7712239777       -6.8603290910  CLST           7          1.0000000000
        70         7  ACO   H33          -7.9226381856        9.6220977812       -7.4948674354  CLST           7          1.0000000000
        71         8  ACO   O1           -3.0885548493       -2.3412715800       -2.7696390399  CLST           8          1.0000000000
        72         8  ACO   C1           -3.2487084235       -1.5093144060       -3.6557236763  CLST           8          1.0000000000
        73         8  ACO   C2           -4.5274016715       -0.7569044931       -3.7926603203  CLST           8          1.0000000000
        74         8  ACO   C3           -2.1702935835       -1.1967077308       -4.6364523824  CLST           8          1.0000000000
        75         8  ACO   H21          -5.2120485688       -1.0464012369       -2.9684847500  CLST           8          1.0000000000
        76         8  ACO   H22          -4.3276649542        0.3324884113       -3.7399917275  CLST           8          1.0000000000
        77         8  ACO   H23          -5.0014205256       -0.9991197854       -4.7644634421  CLST           8          1.0000000000
        78         8  ACO   H31          -2.4377007836       -1.6066347552       -5.6308651194  CLST           8          1.0000000000
        79         8  ACO   H32          -2.0375634333       -0.0990686176       -4.7173040076  CLST           8          1.0000000000
        80         8  ACO   H33          -1.2199443847       -1.6581180666       -4.2999342897  CLST           8          1.0000000000
        81         9  ACO   O1           -9.0930352883       12.7995296939        0.9459646825  CLST           9          1.0000000000
        82         9  ACO   C1           -9.3360231085       13.1772931904       -0.1949602716  CLST           9          1.0000000000
        83         9  ACO   C2          -10.5959043949       13.8944718828       -0.5387021711  CLST           9          1.0000000000
        84         9  ACO   C3           -8.3779181537       12.9544697922       -1.3125426259  CLST           9          1.0000000000
        85         9  ACO   H21         -11.2150211287       13.9974741873        0.3760141701  CLST           9          1.0000000000
        86         9  ACO   H22         -10.3598848390       14.9069363571       -0.9254887540  CLST           9          1.0000000000
        87         9  ACO   H23         -11.1592171569       13.3208156328       -1.3026578767  CLST           9          1.0000000000
        88         9  ACO   H31          -8.8865735864       12.4154655338       -2.1378490051  CLST           9          1.0000000000
        89         9  ACO   H32          -7.9970037247       13.9289112429       -1.6787999928  CLST           9          1.0000000000
        90         9  ACO   H33          -7.5299930021       12.3418242139       -0.9434134227  CLST           9          1.0000000000
        91        10  ACO   O1            1.5223620423      -11.6124842200        2.8380892916  CLST          10          1.0000000000
        92        10  ACO   C1            1.9391300600      -10.6115464892        3.4121319023  CLST          10          1.0000000000
        93        10  ACO   C2            1.0569303251       -9.4434827406        3.6839168934  CLST          10          1.0000000000
        94        10  ACO   C3            3.3602887215      -10.4915635563        3.8440205007  CLST          10          1.0000000000
        95        10  ACO   H21           0.1443655825       -9.5196770056        3.0597607062  CLST          10          1.0000000000
        96        10  ACO   H22           0.7708593259       -9.4301149504        4.7552266436  CLST          10          1.0000000000
        97        10  ACO   H23           1.5867745510       -8.5012229258        3.4364620154  CLST          10          1.0000000000
        98        10  ACO   H31           3.8789806793       -9.7371048868        3.2179917939  CLST          10          1.0000000000
        99        10  ACO   H32           3.4034041793      -10.1821447281        4.9082957944  CLST          10          1.0000000000
       100        10  ACO   H33           3.8628841219      -11.4731342961        3.7269847848  CLST          10          1.0000000000
       101        11  ACO   O1           -8.5393677133       -2.1701174113        3.2350449213  CLST          11          1.0000000000
       102        11  ACO   C1           -7.5107653595       -1.9708461577        3.8741145114  CLST          11          1.0000000000
       103        11  ACO   C2           -7.5153475985       -1.8511624957        5.3597433420  CLST          11          1.0000000000
       104        11  ACO   C3           -6.1843043323       -1.8420881042        3.2065839936  CLST          11          1.0000000000
       105        11  ACO   H21          -8.5405273579       -2.0314603675        5.7426623824  CLST          11          1.0000000000
       106        11  ACO   H22          -6.8345694090       -2.6029668144        5.8050291333  CLST          11          1.0000000000
       107        11  ACO   H23          -7.1963910852       -0.8325267144        5.6583118415  CLST          11          1.0000000000
       108        11  ACO   H31          -5.7153592256       -0.8758545687        3.4798169569  CLST          11          1.0000000000
       109        11  ACO   H32          -5.5242520284       -2.6756148264        3.5206231514  CLST          11          1.0000000000
       110        11  ACO   H33          -6.3150091911       -1.8931639707        2.1064823505  CLST          11          1.0000000000
       111        12  ACO   O1            4.5322461837        8.5958844010       -4.7477723140  CLST          12          1.0000000000
       112        12  ACO   C1            3.4845683211        9.2189844891       -4.8879149120  CLST          12          1.0000000000
       113        12  ACO   C2            2.5348980899        9.4174063355       -3.7553151945  CLST          12          1.0000000000
       114        12  ACO   C3            3.1032000175        9.8289763331       -6.1942949290  CLST          12          1.0000000000
       115        12  ACO   H21           2.9036364165        8.8769873314       -2.8595557778  CLST          12          1.0000000000
       116        12  ACO   H22           2.4559809398       10.4976745353       -3.5239113692  CLST          12          1.0000000000
       117        12  ACO   H23           1.5310244696        9.0339553115       -4.0250553485  CLST          12          1.0000000000
       118        12  ACO   H31           2.1400831903        9.4034177876       -6.5422489803  CLST          12          1.0000000000
       119        12  ACO   H32           3.0037296297       10.9283954194       -6.0833362838  CLST          12          1.0000000000
       120        12  ACO   H33           3.8869439350        9.6018835066       -6.9459624417  CLST          12          1.0000000000
       121        13  ACO   O1           -5.9159913331       10.2809340810       -1.5238000853  CLST          13          1.0000000000
       122        13  ACO   C1           -6.6913821153        9.7215346669       -2.2899670147  CLST          13          1.0000000000
       123        13  ACO   C2           -7.9879794556        9.1629355573       -1.8171414733  CLST          13          1.0000000000
       124        13  ACO   C3           -6.3899013588        9.5847978227       -3.7406075679  CLST          13          1.0000000000
       125        13  ACO   H21          -7.9005233174        8.8923627466       -0.7455150411  CLST          13          1.0000000000
       126        13  ACO   H22          -8.7861347766        9.9223674557       -1.9361360801  CLST          13          1.0000000000
       127        13  ACO   H23          -8.2462899941        8.2607591609       -2.4076401124  CLST          13          1.0000000000
       128        13  ACO   H31          -6.2719774949        8.5130008935       -4.0020616198  CLST          13          1.0000000000
       129        13  ACO   H32          -7.2173896119       10.0193319034       -4.3374758129  CLST          13          1.0000000000
       130        13  ACO   H33          -5.4468614583       10.1230082809       -3.9674278684  CLST          13          1.0000000000
       131        14  ACO   O1            1.8328013394        0.8626575440       -1.4838498331  CLST          14          1.0000000000
       132        14  ACO   C1            2.2093243527        1.5462873903       -0.5379184162  CLST          14          1.0000000000
       133        14  ACO   C2            3.0755134716        2.7425278155       -0.7365315782  CLST          14          1.0000000000
       134        14  ACO   C3            1.8159560577        1.2293138504        0.8631156907  CLST          14          1.0000000000
       135        14  ACO   H21           3.5184999257        2.7142753265       -1.7527673326  CLST          14          1.0000000000
       136        14  ACO   H22           2.4684088879        3.6632928857       -0.6327490090  CLST          14          1.0000000000
       137        14  ACO   H23           3.8840069643        2.7536356892        0.0227172956  CLST          14          1.0000000000
       138        14  ACO   H31           1.2444247064        2.0788338248        1.2895008667  CLST          14          1.0000000000
       139        14  ACO   H32           1.1770485180        0.3210557436        0.8715242957  CLST          14          1.0000000000
       140        14  ACO   H33           2.7213923901        1.0452539957        1.4769419023  CLST          14          1.0000000000
       141        15  ACO   O1            6.3033019999       -3.7830175010      -13.3082683596  CLST          15          1.0000000000
       142        15  ACO   C1            5.3077981886       -3.9510338929      -12.6109771961  CLST          15          1.0000000000
       143        15  ACO   C2            4.0420646937       -4.4963737172      -13.1797742439  CLST          15          1.0000000000
       144        15  ACO   C3            5.3175197166       -3.6576816499      -11.1508571013  CLST          15          1.0000000000
       145        15  ACO   H21           3.9927992481       -4.2524409710      -14.2596618430  CLST          15          1.0000000000
       146        15  ACO   H22           4.0172363937       -5.5980518994      -13.0513050323  CLST          15          1.0000000000
       147        15  ACO   H23           3.1708378392       -4.0488809244      -12.6618800722  CLST          15          1.0000000000
       148        15  ACO   H31           4.6910207430       -2.7690373025      -10.9398803536  CLST          15          1.0000000000
       149        15  ACO   H32           4.9239591720       -4.5266793139      -10.5850070164  CLST          15          1.0000000000
       150        15  ACO   H33           6.3551765997       -3.4481888010      -10.8225955940  CLST          15          1.0000000000
       151        16  ACO   O1           -2.4840227864        4.6258319095       13.2729414266  CLST          16          1.0000000000
       152        16  ACO   C1           -2.9068511408        3.7057887465       12.5822141621  CLST          16          1.0000000000
       153        16  ACO   C2           -2.5710035888        3.5890498901       11.1349101480  CLST          16          1.0000000000
       154        16  ACO   C3           -3.8028998218        2.6546788224       13.1418444063  CLST          16          1.0000000000
       155        16  ACO   H21          -1.7606165831        4.3030720621       10.8834005542  CLST          16          1.0000000000
       156        16  ACO   H22          -2.2224544831        2.5607016408       10.9098928649  CLST          16          1.0000000000
       157        16  ACO   H23          -3.4662730897        3.8174394172       10.5224137236  CLST          16          1.0000000000
       158        16  ACO   H31          -4.7207646696        2.5751081928       12.5254836463  CLST          16          1.0000000000
       159        16  ACO   H32          -3.2726344028        1.6801715199       13.1485769361  CLST          16          1.0000000000
       160        16  ACO   H33          -4.0825210921        2.9260757335       14.1803455287  CLST          16          1.0000000000
       161        17  ACO   O1           11.9625621874        2.9131985287       -5.0058992100  CLST          17          1.0000000000
       162        17  ACO   C1           10.8655516791        3.2330156675       -4.5574628237  CLST          17          1.0000000000
       163        17  ACO   C2           10.2217539054        4.5326437487       -4.9017604810  CLST          17          1.0000000000
       164        17  ACO   C3           10.0999050372        2.3359280726       -3.6459296492  CLST          17          1.0000000000
       165        17  ACO   H21          10.8995371583        5.1193131030       -5.5550806819  CLST          17          1.0000000000
       166        17  ACO   H22           9.2677465483        4.3489079034       -5.4371879245  CLST          17          1.0000000000
       167        17  ACO   H23          10.0156019477        5.1052917829       -3.9753870429  CLST          17          1.0000000000
       168        17  ACO   H31           9.8665134367        2.8693960219       -2.7015836622  CLST          17          1.0000000000
       169        17  ACO   H32           9.1562069434        2.0197897962       -4.1362732472  CLST          17          1.0000000000
       170        17  ACO   H33          10.7143369815        1.4419575214       -3.4192629685  CLST          17          1.0000000000
       171        18  ACO   O1           -4.4724971604        3.7092324378        8.2344726220  CLST          18          1.0000000000
       172        18  ACO   C1           -3.8213167127        3.6260931499        7.1976761437  CLST          18          1.0000000000
       173        18  ACO   C2           -4.2264102886        2.7330385006        6.0796644257  CLST          18          1.0000000000
       174        18  ACO   C3           -2.5702733956        4.4041765081        6.9905866133  CLST          18          1.0000000000
       175        18  ACO   H21          -5.2671701136        2.3921713523        6.2449493190  CLST          18          1.0000000000
       176        18  ACO   H22          -4.1771098288        3.2886062975        5.1195315667  CLST          18          1.0000000000
       177        18  ACO   H23          -3.5487824554        1.8556621601        6.0413279365  CLST          18          1.0000000000
       178        18  ACO   H31          -1.7342981243        3.7134859073        6.7573953476  CLST          18          1.0000000000
       179        18  ACO   H32          -2.7049247962        5.1121583737        6.1482964206  CLST          18          1.0000000000
       180        18  ACO   H33          -2.3330820688        4.9660756081        7.9159078169  CLST          18          1.0000000000
       181        19  ACO   O1           -1.6193568778        9.2146035765       -7.3424654217  CLST          19          1.0000000000
       182        19  ACO   C1           -1.7265364633        8.3902771590       -8.2451159025  CLST          19          1.0000000000
       183        19  ACO   C2           -0.5404145609        7.7476722842       -8.8775608642  CLST          19          1.0000000000
       184        19  ACO   C3           -3.0533620083        7.9557655961       -8.7595214887  CLST          19          1.0000000000
       185        19  ACO   H21           0.3847408620        8.1136565392       -8.3867385522  CLST          19          1.0000000000
       186        19  ACO   H22          -0.6060125861        6.6461770277       -8.7614667590  CLST          19          1.0000000000
       187        19  ACO   H23          -0.5092747785        8.0018677447       -9.9568621363  CLST          19          1.0000000000
       188        19  ACO   H31          -3.0284810764        7.9125710553       -9.8667800405  CLST          19          1.0000000000
       189        19  ACO   H32          -3.2920502507        6.9510652422       -8.3579276396  CLST          19          1.0000000000
       190        19  ACO   H33          -3.8342835118        8.6705383748       -8.4338834938  CLST          19          1.0000000000
       191        20  ACO   O1            3.4215678913        0.6960739188       12.1938785431  CLST          20          1.0000000000
       192        20  ACO   C1            3.8915678557        1.8256906905       12.0916150953  CLST          20          1.0000000000
       193        20  ACO   C2            3.3439958015        2.9814082119       12.8582986717  CLST          20          1.0000000000
       194        20  ACO   C3            5.0279842729        2.1195647515       11.1771600583  CLST          20          1.0000000000
       195        20  ACO   H21           2.6068312496        2.6138718710       13.5998864512  CLST          20          1.0000000000
       196        20  ACO   H22           4.1674421608        3.5011002890       13.3906547608  CLST          20          1.0000000000
       197        20  ACO   H23           2.8468703870        3.6882651630       12.1635553705  CLST          20          1.0000000000
       198        20  ACO   H31           4.6905862475        2.7798328045       10.3526680734  CLST          20          1.0000000000
       199        20  ACO   H32           5.8397627242        2.6249495221       11.7373965599  CLST          20          1.0000000000
       200        20  ACO   H33           5.4202443632        1.1741805471       10.7527252425  CLST          20          1.0000000000
       201        21  ACO   O1            7.0948775550       -3.8990357991       -8.4699080484  CLST          21          1.0000000000
       202        21  ACO   C1            7.3361200663       -4.9695191620       -7.9212468262  CLST          21          1.0000000000
       203        21  ACO   C2            8.3654093563       -5.0864302171       -6.8502813213  CLST          21          1.0000000000
       204        21  ACO   C3            6.6198904201       -6.2239641331       -8.2872715561  CLST          21          1.0000000000
       205        21  ACO   H21           8.7743482416       -4.0791511157       -6.6304881275  CLST          21          1.0000000000
       206        21  ACO   H22           7.9074053030       -5.5070311009       -5.9315329622  CLST          21          1.0000000000
       207        21  ACO   H23           9.1868225083       -5.7457524792       -7.1946807288  CLST          21          1.0000000000
       208        21  ACO   H31           7.3436882494       -6.9849197773       -8.6416287134  CLST          21          1.0000000000
       209        21  ACO   H32           6.0652897190       -6.6133111322       -7.4093882811  CLST          21          1.0000000000
       210        21  ACO   H33           5.8946685912       -6.0082216609       -9.0972780028  CLST          21          1.0000000000
       211        22  ACO   O1            6.7968340413      -11.8497270873        5.5354405161  CLST          22          1.0000000000
       212        22  ACO   C1            7.0150215841      -11.0370903655        4.6431536157  CLST          22          1.0000000000
       213        22  ACO   C2            7.5420197047      -11.4588763733        3.3157280240  CLST          22          1.0000000000
       214        22  ACO   C3            6.7690323257       -9.5784158925        4.8277145730  CLST          22          1.0000000000
       215        22  ACO   H21           7.7324916958      -12.5512279822        3.3257604177  CLST          22          1.0000000000
       216        22  ACO   H22           6.7970411859      -11.2220992558        2.5292646065  CLST          22          1.0000000000
       217        22  ACO   H23           8.4888233966      -10.9219219781        3.1019002870  CLST          22          1.0000000000
       218        22  ACO   H31           7.7313289323       -9.0293265304        4.7994877878  CLST          22          1.0000000000
       219        22  ACO   H32           6.1107982370       -9.2017557967        4.0186627110  CLST          22          1.0000000000
       220        22  ACO   H33           6.2870079268       -9.4068380164        5.8121194727  CLST          22          1.0000000000
       221        23  ACO   O1          -14.1856584461       -8.6691338898       -1.1709052742  CLST          23          1.0000000000
       222        23  ACO   C1          -13.3578083472       -9.2508633637       -1.8640845678  CLST          23          1.0000000000
       223        23  ACO   C2          -12.1334613084       -9.8685454167       -1.2775149004  CLST          23          1.0000000000
       224        23  ACO   C3          -13.5384347868       -9.3908458381       -3.3380385884  CLST          23          1.0000000000
       225        23  ACO   H21         -11.8406625891       -9.3146235196       -0.3613318965  CLST          23          1.0000000000
       226        23  ACO   H22         -12.3332546213      -10.9255088487       -1.0077058828  CLST          23          1.0000000000
       227        23  ACO   H23         -11.2979032220       -9.8260519869       -2.0060681718  CLST          23          1.0000000000
       228        23  ACO   H31         -12.7542075645       -8.8101843628       -3.8647953101  CLST          23          1.0000000000
       229        23  ACO   H32         -13.4624384366      -10.4584118207       -3.6276574538  CLST          23          1.0000000000
       230        23  ACO   H33         -14.5359457429       -8.9996818183       -3.6253778408  CLST          23          1.0000000000
       231        24  ACO   O1            2.3816336340       10.3405057501      -13.8361567831  CLST          24          1.0000000000
       232        24  ACO   C1            1.7228887163       10.0792081803      -12.8344404639  CLST          24          1.0000000000
       233        24  ACO   C2            0.3510920594       10.6369747869      -12.6470892649  CLST          24          1.0000000000
       234        24  ACO   C3            2.2647727256        9.2240195944      -11.7399464178  CLST          24          1.0000000000
       235        24  ACO   H21           0.4100358869       11.6155960229      -12.1307929926  CLST          24          1.0000000000
       236        24  ACO   H22          -0.1277904675       10.7756544604      -13.6357854490  CLST          24          1.0000000000
       237        24  ACO   H23          -0.2656488912        9.9427824156      -12.0405994100  CLST          24          1.0000000000
       238        24  ACO   H31           1.5404632113        8.4246280130      -11.4811909426  CLST          24          1.0000000000
       239        24  ACO   H32           3.2109459322        8.7527973749      -12.0792387593  CLST          24          1.0000000000
       240        24  ACO   H33           2.4724482999        9.8397595265      -10.8416435124  CLST          24          1.0000000000
       241        25  ACO   O1           -1.2732713501       -6.6924871282       -3.8312221985  CLST          25          1.0000000000
       242        25  ACO   C1           -0.3671004972       -5.9592740754       -3.4473140967  CLST          25          1.0000000000
       243        25  ACO   C2            1.0527063420       -6.4106874868       -3.3981595324  CLST          25          1.0000000000
       244        25  ACO   C3           -0.6271152386       -4.5625765008       -2.9999289570  CLST          25          1.0000000000
       245        25  ACO   H21           1.1320712501       -7.4476832884       -3.7801088728  CLST          25          1.0000000000
       246        25  ACO   H22           1.6791539891       -5.7461183527       -4.0252272631  CLST          25          1.0000000000
       247        25  ACO   H23           1.4260234574       -6.3795736691       -2.3536496994  CLST          25          1.0000000000
       248        25  ACO   H31          -0.0802506135       -4.3579349692       -2.0564859218  CLST          25          1.0000000000
       249        25  ACO   H32          -0.2927823483       -3.8525873670       -3.7829433834  CLST          25          1.0000000000
       250        25  ACO   H33          -1.7145353633       -4.4298047818       -2.8293926863  CLST          25          1.0000000000
       251        26  ACO   O1          -11.0820243594       10.9890073146       -2.4759534578  CLST          26          1.0000000000
       252        26  ACO   C1          -11.1877150856       10.5547411777       -3.6179530269  CLST          26          1.0000000000
       253        26  ACO   C2          -11.0449365450        9.1029825997       -3.9295239245  CLST          26          1.0000000000
       254        26  ACO   C3          -11.4579652338       11.4574582876       -4.7748786036  CLST          26          1.0000000000
       255        26  ACO   H21         -10.8780522607        8.5313302712       -2.9926828757  CLST          26          1.0000000000
       256        26  ACO   H22         -11.9656965458        8.7288454312       -4.4205347918  CLST          26          1.0000000000
       257        26  ACO   H23         -10.1780611102        8.9473370096       -4.6045771653  CLST          26          1.0000000000
       258        26  ACO   H31         -10.6013751779       11.4263811766       -5.4792713379  CLST          26          1.0000000000
       259        26  ACO   H32         -12.3807289765       11.1305091256       -5.2960366313  CLST          26          1.0000000000
       260        26  ACO   H33         -11.5939188180       12.4959491943       -4.4092346964  CLST          26          1.0000000000
       261        27  ACO   O1           10.5701612257        5.7889738255      -13.1635645099  CLST          27          1.0000000000
       262        27  ACO   C1           11.7789847632        5.5798762379      -13.1280133186  CLST          27          1.0000000000
       263        27  ACO   C2           12.4770000062        4.7922280680      -14.1853515743  CLST          27          1.0000000000
       264        27  ACO   C3           12.6378730343        6.1037872543      -12.0267561763  CLST          27          1.0000000000
       265        27  ACO   H21          11.7305329558        4.3882974811      -14.8980209851  CLST          27          1.0000000000
       266        27  ACO   H22          13.1925253815        5.4410710155      -14.7310452159  CLST          27          1.0000000000
       267        27  ACO   H23          13.0289442162        3.9511220459      -13.7188319217  CLST          27          1.0000000000
       268        27  ACO   H31          13.0276962091        5.2549213712      -11.4289872774  CLST          27          1.0000000000
       269        27  ACO   H32          13.4848228418        6.6812327934      -12.4494286471  CLST          27          1.0000000000
       270        27  ACO   H33          12.0339987808        6.7618729182      -11.3701976987  CLST          27          1.0000000000
       271        28  ACO   O1           -1.6228897545        0.0539490922        6.2541231805  CLST          28          1.0000000000
       272        28  ACO   C1           -0.4046645412        0.0403931734        6.4051048195  CLST          28          1.0000000000
       273        28  ACO   C2            0.4346669626       -1.0970449488        5.9346402272  CLST          28          1.0000000000
       274        28  ACO   C3            0.3185058631        1.1689298931        7.0512550887  CLST          28          1.0000000000
       275        28  ACO   H21          -0.2150735255       -1.8612494939        5.4659886259  CLST          28          1.0000000000
       276        28  ACO   H22           1.1687784446       -0.7355239252        5.1859781874  CLST          28          1.0000000000
       277        28  ACO   H23           0.9723166966       -1.5496931170        6.7935435116  CLST          28          1.0000000000
       278        28  ACO   H31           0.9535773748        0.7918092579        7.8769491812  CLST          28          1.0000000000
       279        28  ACO   H32           0.9592611733        1.6807189422        6.3035366556  CLST          28          1.0000000000
       280        28  ACO   H33          -0.4140189614        1.8925558515        7.4625949119  CLST          28          1.0000000000
       281        29  ACO   O1           11.0195222016       -2.2214776246      -11.7613667067  CLST          29          1.0000000000
       282        29  ACO   C1            9.8534953231       -2.5659391402      -11.9302357745  CLST          29          1.0000000000
       283        29  ACO   C2            9.3546329880       -3.8996159786      -11.4891663597  CLST          29          1.0000000000
       284        29  ACO   C3            8.8494454175       -1.6620997003      -12.5628097602  CLST          29          1.0000000000
       285        29  ACO   H21          10.2117136935       -4.5362234624      -11.1877999952  CLST          29          1.0000000000
       286        29  ACO   H22           8.6754349655       -3.7770243607      -10.6206778459  CLST          29          1.0000000000
       287        29  ACO   H23           8.8048454556       -4.3905308424      -12.3180262780  CLST          29          1.0000000000
       288        29  ACO   H31           8.3952104472       -2.1629379137      -13.4418722509  CLST          29          1.0000000000
       289        29  ACO   H32           8.0530823326       -1.4153234267      -11.8311389860  CLST          29          1.0000000000
       290        29  ACO   H33           9.3455081849       -0.7266196677      -12.8920429516  CLST          29          1.0000000000
       291        30  ACO   O1           -3.5606108512       12.6338005028       -3.9318118741  CLST          30          1.0000000000
       292        30  ACO   C1           -4.4982099347       13.0637639251       -3.2690029497  CLST          30          1.0000000000
       293        30  ACO   C2           -5.7909326659       13.4443244636       -3.9034657592  CLST          30          1.0000000000
       294        30  ACO   C3           -4.4077771239       13.2321472129       -1.7923671006  CLST          30          1.0000000000
       295        30  ACO   H21          -5.6582317389       13.4623987394       -5.0039760105  CLST          30          1.0000000000
       296        30  ACO   H22          -6.5663995020       12.6963305636       -3.6441591482  CLST          30          1.0000000000
       297        30  ACO   H23          -6.1019432718       14.4487951204       -3.5519031122  CLST          30          1.0000000000
       298        30  ACO   H31          -4.5194527437       14.3018377439       -1.5219843046  CLST          30          1.0000000000
       299        30  ACO   H32          -5.2013461601       12.6382651946       -1.2979424189  CLST          30          1.0000000000
       300        30  ACO   H33          -3.4186452494       12.8701941173       -1.4482735531  CLST          30          1.0000000000
       301        31  ACO   O1           -3.0149959872      -13.4102832873        1.3371877965  CLST          31          1.0000000000
       302        31  ACO   C1           -2.2412977825      -12.7119185280        0.6892274981  CLST          31          1.0000000000
       303        31  ACO   C2           -2.1640298486      -11.2369430121        0.8772064868  CLST          31          1.0000000000
       304        31  ACO   C3           -1.3215176148      -13.2854668493       -0.3321803346  CLST          31          1.0000000000
       305        31  ACO   H21          -2.9088944606      -10.9263498616        1.6357718241  CLST          31          1.0000000000
       306        31  ACO   H22          -1.1502209649      -10.9527930413        1.2264395169  CLST          31          1.0000000000
       307        31  ACO   H23          -2.3877586089      -10.7240530440       -0.0804751611  CLST          31          1.0000000000
       308        31  ACO   H31          -1.5810323794      -12.8866591196       -1.3341750603  CLST          31          1.0000000000
       309        31  ACO   H32          -0.2727413220      -13.0252933742       -0.0809729404  CLST          31          1.0000000000
       310        31  ACO   H33          -1.4248625700      -14.3898165713       -0.3340981553  CLST          31          1.0000000000
       311        32  ACO   O1            0.6951552880       -6.8184988328       10.9588703839  CLST          32          1.0000000000
       312        32  ACO   C1            1.0228384228       -5.8494255966       11.6353419552  CLST          32          1.0000000000
       313        32  ACO   C2            2.0131042056       -4.8475551947       11.1521193605  CLST          32          1.0000000000
       314        32  ACO   C3            0.4673096808       -5.6218456808       12.9987313314  CLST          32          1.0000000000
       315        32  ACO   H21           2.2236148565       -5.0361033341       10.0795006163  CLST          32          1.0000000000
       316        32  ACO   H22           1.6012561114       -3.8238038512       11.2618931031  CLST          32          1.0000000000
       317        32  ACO   H23           2.9563359698       -4.9430609365       11.7256759340  CLST          32          1.0000000000
       318        32  ACO   H31           1.2453564918       -5.8350626303       13.7590093986  CLST          32          1.0000000000
       319        32  ACO   H32           0.1236627995       -4.5726666424       13.1011520696  CLST          32          1.0000000000
       320        32  ACO   H33          -0.3950807729       -6.3009031365       13.1606174738  CLST          32          1.0000000000
       321        33  ACO   O1           -7.7979565869       11.1157284140        4.5094683047  CLST          33          1.0000000000
       322        33  ACO   C1           -8.6283552177       11.8483191214        5.0330646753  CLST          33          1.0000000000
       323        33  ACO   C2           -9.6924070030       12.5166055535        4.2314874520  CLST          33          1.0000000000
       324        33  ACO   C3           -8.6167314636       12.1162577191        6.4995260033  CLST          33          1.0000000000
       325        33  ACO   H21          -9.7090373110       12.0722807516        3.2148838431  CLST          33          1.0000000000
       326        33  ACO   H22         -10.6808439935       12.3651717489        4.7098306321  CLST          33          1.0000000000
       327        33  ACO   H23          -9.4762915313       13.6001460790        4.1426610293  CLST          33          1.0000000000
       328        33  ACO   H31          -8.2847147658       13.1545683896        6.6936155743  CLST          33          1.0000000000
       329        33  ACO   H32          -9.6302942225       11.9609838690        6.9236937971  CLST          33          1.0000000000
       330        33  ACO   H33          -7.9172525496       11.4099792379        6.9919676790  CLST          33          1.0000000000
       331        34  ACO   O1            8.1238347897        5.0852064798       -8.2926426233  CLST          34          1.0000000000
       332        34  ACO   C1            9.1710744900        4.5320132392       -8.6133831376  CLST          34          1.0000000000
       333        34  ACO   C2            9.5034765132        3.1497986433       -8.1650541642  CLST          34          1.0000000000
       334        34  ACO   C3           10.1851177024        5.2089178244       -9.4694889054  CLST          34          1.0000000000
       335        34  ACO   H21           8.7784906650        2.8362591971       -7.3857727583  CLST          34          1.0000000000
       336        34  ACO   H22           9.4364422215        2.4556962968       -9.0276612693  CLST          34          1.0000000000
       337        34  ACO   H23          10.5290938503        3.1258909329       -7.7436249741  CLST          34          1.0000000000
       338        34  ACO   H31          10.9931064462        5.6238355826       -8.8328461340  CLST          34          1.0000000000
       339        34  ACO   H32          10.6153516791        4.4876844874      -10.1946787656  CLST          34          1.0000000000
       340        34  ACO   H33           9.6988273820        6.0355479911      -10.0248755356  CLST          34          1.0000000000
       341        35  ACO   O1            6.8841180785        6.3476976805        5.1443052332  CLST          35          1.0000000000
       342        35  ACO   C1            7.3883939847        7.3565447036        4.6620504328  CLST          35          1.0000000000
       343        35  ACO   C2            7.7461040507        8.5383067746        5.4970696665  CLST          35          1.0000000000
       344        35  ACO   C3            7.6740289027        7.4662659600        3.2055577834  CLST          35          1.0000000000
       345        35  ACO   H21           7.4858715718        8.3317564291        6.5547471316  CLST          35          1.0000000000
       346        35  ACO   H22           8.8364299217        8.7282280729        5.4268103445  CLST          35          1.0000000000
       347        35  ACO   H23           7.1916327000        9.4304417089        5.1443418626  CLST          35          1.0000000000
       348        35  ACO   H31           7.1886051923        8.3723677718        2.7924797280  CLST          35          1.0000000000
       349        35  ACO   H32           8.7699619746        7.5202763937        3.0476874085  CLST          35          1.0000000000
       350        35  ACO   H33           7.2786667567        6.5690745160        2.6904878782  CLST          35          1.0000000000
       351        36  ACO   O1           -0.1166096804        0.9811512104      -12.0755273168  CLST          36          1.0000000000
       352        36  ACO   C1           -0.7692213793        1.7012899031      -11.3297960104  CLST          36          1.0000000000
       353        36  ACO   C2           -0.1437324774        2.3675062378      -10.1499966475  CLST          36          1.0000000000
       354        36  ACO   C3           -2.2214521295        1.9423384587      -11.5701722851  CLST          36          1.0000000000
       355        36  ACO   H21          -0.3570489019        3.4543313024      -10.1646679562  CLST          36          1.0000000000
       356        36  ACO   H22          -0.5413750215        1.9343680556       -9.2110263994  CLST          36          1.0000000000
       357        36  ACO   H23           0.9559218890        2.2117531801      -10.1827407101  CLST          36          1.0000000000
       358        36  ACO   H31          -2.5950156190        1.2140258813      -12.3201368563  CLST          36          1.0000000000
       359        36  ACO   H32          -2.7888675121        1.8240892899      -10.6256722578  CLST          36          1.0000000000
       360        36  ACO   H33          -2.3649271468        2.9703931088      -11.9623037854  CLST          36          1.0000000000
       361        37  ACO   O1           12.2142579073        2.7313136773      -11.5136328692  CLST          37          1.0000000000
       362        37  ACO   C1           12.2247029821        1.5056271572      -11.5741872734  CLST          37          1.0000000000
       363        37  ACO   C2           11.7570469623        0.6688220735      -10.4363180417  CLST          37          1.0000000000
       364        37  ACO   C3           12.6951290574        0.7804210543      -12.7886230461  CLST          37          1.0000000000
       365        37  ACO   H21          11.6042895968        1.3138223003       -9.5482942128  CLST          37          1.0000000000
       366        37  ACO   H22          10.7975817362        0.1827212060      -10.7072785196  CLST          37          1.0000000000
       367        37  ACO   H23          12.5133581554       -0.1097289008      -10.2056926672  CLST          37          1.0000000000
       368        37  ACO   H31          13.6086843853        0.2000536321      -12.5441749681  CLST          37          1.0000000000
       369        37  ACO   H32          11.9023386268        0.0890879428      -13.1411138326  CLST          37          1.0000000000
       370        37  ACO   H33          12.9283123900        1.5149437759      -13.5853877238  CLST          37          1.0000000000
       371        38  ACO   O1            1.4991795348       12.5479950851       -4.7280181379  CLST          38          1.0000000000
       372        38  ACO   C1            0.2987646325       12.4521871396       -4.4907819520  CLST          38          1.0000000000
       373        38  ACO   C2           -0.4990901396       11.2740417791       -4.9337607869  CLST          38          1.0000000000
       374        38  ACO   C3           -0.4358113586       13.4923222469       -3.7191478600  CLST          38          1.0000000000
       375        38  ACO   H21          -1.5304960717       11.5887723322       -5.1930523576  CLST          38          1.0000000000
       376        38  ACO   H22          -0.0196403599       10.8067667605       -5.8158013210  CLST          38          1.0000000000
       377        38  ACO   H23          -0.5436195156       10.5296863514       -4.1173718635  CLST          38          1.0000000000
       378        38  ACO   H31          -1.1912719313       13.9769612399       -4.3716948262  CLST          38          1.0000000000
       379        38  ACO   H32          -0.9477167052       13.0256002880       -2.8537458749  CLST          38          1.0000000000
       380        38  ACO   H33           0.2798355312       14.2604938665       -3.3598169690  CLST          38          1.0000000000
       381        39  ACO   O1            2.1819294898       -9.2665616170        6.8802852053  CLST          39          1.0000000000
       382        39  ACO   C1            1.7581706154       -8.3982348847        7.6363718957  CLST          39          1.0000000000
       383        39  ACO   C2            2.6244235479       -7.2835390119        8.1124310630  CLST          39          1.0000000000
       384        39  ACO   C3            0.3532394920       -8.4227108731        8.1361620984  CLST          39          1.0000000000
       385        39  ACO   H21           3.6670613359       -7.4517220509        7.7741697781  CLST          39          1.0000000000
       386        39  ACO   H22           2.2621563266       -6.3184436530        7.7022706047  CLST          39          1.0000000000
       387        39  ACO   H23           2.6108963888       -7.2401792853        9.2207624191  CLST          39          1.0000000000
       388        39  ACO   H31           0.3508149945       -8.6514776213        9.2213620905  CLST          39          1.0000000000
       389        39  ACO   H32          -0.1222080713       -7.4343029997        7.9746620993  CLST          39          1.0000000000
       390        39  ACO   H33          -0.2186838584       -9.2023063752        7.5926000177  CLST          39          1.0000000000
       391        40  ACO   O1           -4.8690888947       -7.1670371137        4.8588323180  CLST          40          1.0000000000
       392        40  ACO   C1           -5.5035248242       -8.0275911559        5.4592746647  CLST          40          1.0000000000
       393        40  ACO   C2           -6.7009122937       -8.6726797309        4.8524103755  CLST          40          1.0000000000
       394        40  ACO   C3           -5.1039506815       -8.4906210785        6.8196944377  CLST          40          1.0000000000
       395        40  ACO   H21          -6.8840257907       -8.2355130454        3.8497638710  CLST          40          1.0000000000
       396        40  ACO   H22          -6.5201082272       -9.7595420694        4.7458127364  CLST          40          1.0000000000
       397        40  ACO   H23          -7.5899654737       -8.5050014998        5.4948924561  CLST          40          1.0000000000
       398        40  ACO   H31          -5.9596650218       -8.3992895472        7.5185402675  CLST          40          1.0000000000
       399        40  ACO   H32          -4.7759280643       -9.5491036896        6.7771826118  CLST          40          1.0000000000
       400        40  ACO   H33          -4.2641757140       -7.8648790458        7.1861695440  CLST          40          1.0000000000
       401        41  ACO   O1          -10.5005416305        3.2332394027        2.8014017911  CLST          41          1.0000000000
       402        41  ACO   C1          -11.0286952836        3.9168228239        3.6721534648  CLST          41          1.0000000000
       403        41  ACO   C2          -10.4976996514        5.2562018789        4.0557443856  CLST          41          1.0000000000
       404        41  ACO   C3          -12.2462402163        3.4596645109        4.3983899866  CLST          41          1.0000000000
       405        41  ACO   H21          -9.4909643482        5.3915162093        3.6103693791  CLST          41          1.0000000000
       406        41  ACO   H22         -11.1735261052        6.0516259302        3.6797735282  CLST          41          1.0000000000
       407        41  ACO   H23         -10.4180565892        5.3253802838        5.1593759775  CLST          41          1.0000000000
       408        41  ACO   H31         -11.9860480260        3.2209562792        5.4506612664  CLST          41          1.0000000000
       409        41  ACO   H32         -13.0186664914        4.2541718580        4.3732760176  CLST          41          1.0000000000
       410        41  ACO   H33         -12.6453513691        2.5491114175        3.9069981382  CLST          41          1.0000000000
       411        42  ACO   O1            9.6352005627       -6.3650031968       -0.3037082243  CLST          42          1.0000000000
       412        42  ACO   C1           10.6549144063       -6.3185924452       -0.9859577034  CLST          42          1.0000000000
       413        42  ACO   C2           11.8802714650       -5.6000458276       -0.5301468973  CLST          42          1.0000000000
       414        42  ACO   C3           10.7392850367       -6.9981869840       -2.3095235183  CLST          42          1.0000000000
       415        42  ACO   H21          11.6438125899       -4.9949200153        0.3688680619  CLST          42          1.0000000000
       416        42  ACO   H22          12.6761964120       -6.3328222261       -0.2856199666  CLST          42          1.0000000000
       417        42  ACO   H23          12.2385028723       -4.9228015893       -1.3324395425  CLST          42          1.0000000000
       418        42  ACO   H31          10.9464284439       -6.2475774107       -3.0998555032  CLST          42          1.0000000000
       419        42  ACO   H32          11.5515342705       -7.7528922962       -2.2912996761  CLST          42          1.0000000000
       420        42  ACO   H33           9.7734770615       -7.4990324029       -2.5270437645  CLST          42          1.0000000000
       421        43  ACO   O1           -4.0354802713       -5.3531410950       -8.4967298384  CLST          43          1.0000000000
       422        43  ACO   C1           -3.2161815765       -5.4126791912       -7.5831155339  CLST          43          1.0000000000
       423        43  ACO   C2           -2.9984050561       -4.2770673501       -6.6454735039  CLST          43          1.0000000000
       424        43  ACO   C3           -2.4003507279       -6.6324059106       -7.3247449598  CLST          43          1.0000000000
       425        43  ACO   H21          -3.7022662989       -3.4559562405       -6.8909484095  CLST          43          1.0000000000
       426        43  ACO   H22          -3.1687213201       -4.6107068099       -5.6023820118  CLST          43          1.0000000000
       427        43  ACO   H23          -1.9579783115       -3.9076269437       -6.7464616791  CLST          43          1.0000000000
       428        43  ACO   H31          -1.3311295697       -6.3538357823       -7.2244386374  CLST          43          1.0000000000
       429        43  ACO   H32          -2.7424988941       -7.1238611328       -6.3905763425  CLST          43          1.0000000000
       430        43  ACO   H33          -2.5115828933       -7.3336471669       -8.1764153248  CLST          43          1.0000000000
       431        44  ACO   O1          -10.7033683474       -0.3633216791       -6.2804179940  CLST          44          1.0000000000
       432        44  ACO   C1          -11.6450648902        0.3847367667       -6.5268862655  CLST          44          1.0000000000
       433        44  ACO   C2          -13.0244174452        0.1017317869       -6.0359477908  CLST          44          1.0000000000
       434        44  ACO   C3          -11.4867815783        1.5995658559       -7.3748754105  CLST          44          1.0000000000
       435        44  ACO   H21         -13.0083939620       -0.8050959635       -5.3971895800  CLST          44          1.0000000000
       436        44  ACO   H22         -13.3983178398        0.9618076796       -5.4431105948  CLST          44          1.0000000000
       437        44  ACO   H23         -13.6982051984       -0.0685044983       -6.9002785759  CLST          44          1.0000000000
       438        44  ACO   H31         -11.7926609779        1.3767768405       -8.4162331846  CLST          44          1.0000000000
       439        44  ACO   H32         -12.1117216847        2.4247239073       -6.9778731694  CLST          44          1.0000000000
       440        44  ACO   H33         -10.4250462433        1.9188071378       -7.3632660484  CLST          44          1.0000000000
       441        45  ACO   O1            8.1526321484       -8.9722888254       11.7813579436  CLST          45          1.0000000000
       442        45  ACO   C1            7.1708621021       -9.6804053642       11.5819794167  CLST          45          1.0000000000
       443        45  ACO   C2            6.4663723846       -9.6848437077       10.2691683142  CLST          45          1.0000000000
       444        45  ACO   C3            6.6112245150      -10.5700205489       12.6400333047  CLST          45          1.0000000000
       445        45  ACO   H21           6.4553771881      -10.7147544806        9.8609928654  CLST          45          1.0000000000
       446        45  ACO   H22           5.4255896581       -9.3244136461       10.3970376887  CLST          45          1.0000000000
       447        45  ACO   H23           7.0000906021       -9.0212607848        9.5582774631  CLST          45          1.0000000000
       448        45  ACO   H31           7.3138357225      -10.6085833244       13.4985342240  CLST          45          1.0000000000
       449        45  ACO   H32           5.6379049767      -10.1721700785       12.9914749683  CLST          45          1.0000000000
       450        45  ACO   H33           6.4651714308      -11.5930020293       12.2361840013  CLST          45          1.0000000000
       451        46  ACO   O1           -3.5826734804       -3.3413766928        1.9312983290  CLST          46          1.0000000000
       452        46  ACO   C1           -2.5200995637       -2.7408867508        1.8080243019  CLST          46          1.0000000000
       453        46  ACO   C2           -2.0712680138       -2.2037229573        0.4914877371  CLST          46          1.0000000000
       454        46  ACO   C3           -1.6210040320       -2.5055858468        2.9735048107  CLST          46          1.0000000000
       455        46  ACO   H21          -2.6274545040       -2.7099906243       -0.3229537262  CLST          46          1.0000000000
       456        46  ACO   H22          -2.2726194380       -1.1146365233        0.4473303223  CLST          46          1.0000000000
       457        46  ACO   H23          -0.9838479481       -2.3755347595        0.3577434074  CLST          46          1.0000000000
       458        46  ACO   H31          -0.9888043574       -3.4013785481        3.1391354267  CLST          46          1.0000000000
       459        46  ACO   H32          -0.9654155941       -1.6318454035        2.7759317582  CLST          46          1.0000000000
       460        46  ACO   H33          -2.2311350260       -2.3138468591        3.8786328431  CLST          46          1.0000000000
       461        47  ACO   O1            4.8218004762       -9.6396783840       -7.2534521221  CLST          47          1.0000000000
       462        47  ACO   C1            4.0467628650       -9.2997788326       -8.1433029433  CLST          47          1.0000000000
       463        47  ACO   C2            2.5792580728       -9.1857837545       -7.9026126625  CLST          47          1.0000000000
       464        47  ACO   C3            4.5158695210       -8.9993237112       -9.5267630380  CLST          47          1.0000000000
       465        47  ACO   H21           2.3703055278       -9.3852859519       -6.8321339664  CLST          47          1.0000000000
       466        47  ACO   H22           2.2349806324       -8.1625000621       -8.1589937105  CLST          47          1.0000000000
       467        47  ACO   H23           2.0376605940       -9.9220741320       -8.5297568283  CLST          47          1.0000000000
       468        47  ACO   H31           4.0464860607       -9.7002803309      -10.2465026736  CLST          47          1.0000000000
       469        47  ACO   H32           4.2419411208       -7.9575278472       -9.7926675981  CLST          47          1.0000000000
       470        47  ACO   H33           5.6186547141       -9.1113659115       -9.5764866644  CLST          47          1.0000000000
       471        48  ACO   O1           -4.0579214782      -11.2743306419       -2.0745875395  CLST          48          1.0000000000
       472        48  ACO   C1           -4.1459047356      -10.7310230088       -3.1709422795  CLST          48          1.0000000000
       473        48  ACO   C2           -4.6276009428       -9.3285671797       -3.3168365905  CLST          48          1.0000000000
       474        48  ACO   C3           -3.7791173847      -11.4361031880       -4.4309619767  CLST          48          1.0000000000
       475        48  ACO   H21          -4.8249579628       -8.8985851049       -2.3129279017  CLST          48          1.0000000000
       476        48  ACO   H22          -3.8579850512       -8.7175986736       -3.8320466575  CLST          48          1.0000000000
       477        48  ACO   H23          -5.5611239135       -9.3144550352       -3.9147583617  CLST          48          1.0000000000
       478        48  ACO   H31          -4.6939566058      -11.6841857995       -5.0033678803  CLST          48          1.0000000000
       479        48  ACO   H32          -3.1345845177      -10.7845783527       -5.0548605285  CLST          48          1.0000000000
       480        48  ACO   H33          -3.2289718548      -12.3695709668       -4.1924460782  CLST          48          1.0000000000
       481        49  ACO   O1           -8.9636420983        7.5037621869        6.6173129115  CLST          49          1.0000000000
       482        49  ACO   C1          -10.1211554694        7.8921779725        6.7355650990  CLST          49          1.0000000000
       483        49  ACO   C2          -10.6852054548        8.9549513212        5.8573492150  CLST          49          1.0000000000
       484        49  ACO   C3          -11.0433897401        7.3156723015        7.7554935559  CLST          49          1.0000000000
       485        49  ACO   H21          -9.8956728698        9.3001162590        5.1599528780  CLST          49          1.0000000000
       486        49  ACO   H22         -11.5384063500        8.5544948022        5.2726598004  CLST          49          1.0000000000
       487        49  ACO   H23         -11.0226550264        9.8086077982        6.4800196641  CLST          49          1.0000000000
       488        49  ACO   H31         -11.3533776311        8.1068258499        8.4691303138  CLST          49          1.0000000000
       489        49  ACO   H32         -11.9389700265        6.8927439877        7.2580785044  CLST          49          1.0000000000
       490        49  ACO   H33         -10.5185138434        6.5110835270        8.3093997433  CLST          49          1.0000000000
       491        50  ACO   O1           -1.5248160532       11.7447706028      -10.3010922474  CLST          50          1.0000000000
       492        50  ACO   C1           -1.0431866516       11.9545758231       -9.1920822716  CLST          50          1.0000000000
       493        50  ACO   C2           -1.8271357423       12.6336528898       -8.1234767731  CLST          50          1.0000000000
       494        50  ACO   C3            0.3482643915       11.5413015918       -8.8462869088  CLST          50          1.0000000000
       495        50  ACO   H21          -2.7671741664       13.0319730719       -8.5538549142  CLST          50          1.0000000000
       496        50  ACO   H22          -2.0699329622       11.9059249032       -7.3247597146  CLST          50          1.0000000000
       497        50  ACO   H23          -1.2430041839       13.4705444446       -7.6914052845  CLST          50          1.0000000000
       498        50  ACO   H31           0.3235456960       10.7424396177       -8.0782400940  CLST          50          1.0000000000
       499        50  ACO   H32           0.8527797119       11.1558498677       -9.7534828739  CLST          50          1.0000000000
       500        50  ACO   H33           0.9159268591       12.4104317252       -8.4572695136  CLST          50          1.0000000000
       501        51  ACO   O1            1.2581097383       -2.7353871387        1.5787297666  CLST          51          1.0000000000
       502        51  ACO   C1            1.5812648773       -3.9190905931        1.5988183776  CLST          51          1.0000000000
       503        51  ACO   C2            0.7017175381       -4.9805167634        1.0293597103  CLST          51          1.0000000000
       504        51  ACO   C3            2.8779398852       -4.3705737748        2.1773548689  CLST          51          1.0000000000
       505        51  ACO   H21          -0.2790714334       -4.5434968211        0.7597571661  CLST          51          1.0000000000
       506        51  ACO   H22           1.1732271368       -5.4030860727        0.1194998840  CLST          51          1.0000000000
       507        51  ACO   H23           0.5484824764       -5.7851416185        1.7775335933  CLST          51          1.0000000000
       508        51  ACO   H31           2.6863224725       -5.0512967472        3.0307017496  CLST          51          1.0000000000
       509        51  ACO   H32           3.4719298150       -4.8973488926        1.4037356296  CLST          51          1.0000000000
       510        51  ACO   H33           3.4488364077       -3.4907874739        2.5379450490  CLST          51          1.0000000000
       511        52  ACO   O1           -0.9737974218        7.6020457738      -12.5167732204  CLST          52          1.0000000000
       512        52  ACO   C1           -0.3637233653        6.6792453009      -13.0463092354  CLST          52          1.0000000000
       513        52  ACO   C2           -0.0936369032        5.4034402191      -12.3271179326  CLST          52          1.0000000000
       514        52  ACO   C3            0.1548482300        6.7698924184      -14.4392411353  CLST          52          1.0000000000
       515        52  ACO   H21          -0.5510013284        5.4544211771      -11.3178461641  CLST          52          1.0000000000
       516        52  ACO   H22          -0.5403510340        4.5583064580      -12.8896785316  CLST          52          1.0000000000
       517        52  ACO   H23           1.0007299452        5.2508787359      -12.2293911314  CLST          52          1.0000000000
       518        52  ACO   H31           1.2140731130        6.4464351953      -14.4645848857  CLST          52          1.0000000000
       519        52  ACO   H32          -0.4455817940        6.1141779476      -15.1012697082  CLST          52          1.0000000000
       520        52  ACO   H33           0.0814185903        7.8182207706      -14.7961769335  CLST          52          1.0000000000
       521        53  ACO   O1           -3.2140980610        4.3161292041        2.1862573085  CLST          53          1.0000000000
       522        53  ACO   C1           -2.9333196648        3.9356663311        1.0545732445  CLST          53          1.0000000000
       523        53  ACO   C2           -3.8656345596        3.0947572247        0.2542357231  CLST          53          1.0000000000
       524        53  ACO   C3           -1.6172827227        4.2350269553        0.4283811311  CLST          53          1.0000000000
       525        53  ACO   H21          -4.8316216716        3.0145495125        0.7886566882  CLST          53          1.0000000000
       526        53  ACO   H22          -4.0239199053        3.5566636280       -0.7413043065  CLST          53          1.0000000000
       527        53  ACO   H23          -3.4338198796        2.0814227356        0.1241328869  CLST          53          1.0000000000
       528        53  ACO   H31          -1.0429766305        3.2966857864        0.2923110457  CLST          53          1.0000000000
       529        53  ACO   H32          -1.7709007727        4.7276937879       -0.5530936086  CLST          53          1.0000000000
       530        53  ACO   H33          -1.0468910572        4.9119500740        1.0929260299  CLST          53          1.0000000000
       531        54  ACO   O1            0.8337615077       -6.2260012012        4.2081739646  CLST          54          1.0000000000
       532        54  ACO   C1           -0.0833883310       -5.9519420872        4.9738504956  CLST          54          1.0000000000
       533        54  ACO   C2            0.0513492826       -4.8880896434        6.0084925591  CLST          54          1.0000000000
       534        54  ACO   C3           -1.3956162708       -6.6521051605        4.8960768116  CLST          54          1.0000000000
       535        54  ACO   H21           1.0844074245       -4.4823085982        5.9827863749  CLST          54          1.0000000000
       536        54  ACO   H22          -0.6694437805       -4.0741223669        5.7999552928  CLST          54          1.0000000000
       537        54  ACO   H23          -0.1511843173       -5.3057999199        7.0159886369  CLST          54          1.0000000000
       538        54  ACO   H31          -1.6940259320       -7.0157352863        5.9006533222  CLST          54          1.0000000000
       539        54  ACO   H32          -2.1716789972       -5.9611864490        4.5104230839  CLST          54          1.0000000000
       540        54  ACO   H33          -1.3052967098       -7.5115093971        4.2012860911  CLST          54          1.0000000000
       541        55  ACO   O1          -10.3755965303       -9.8765543598       -4.6685611433  CLST          55          1.0000000000
       542        55  ACO   C1          -10.6767938068       -9.6543999113       -5.8370935508  CLST          55          1.0000000000
       543        55  ACO   C2          -10.1557239459       -8.4673908717       -6.5726302953  CLST          55          1.0000000000
       544        55  ACO   C3          -11.5817690569      -10.5646889832       -6.5936312109  CLST          55          1.0000000000
       545        55  ACO   H21          -9.5984031640       -7.8145720681       -5.8697750446  CLST          55          1.0000000000
       546        55  ACO   H22          -9.4758488572       -8.8034584677       -7.3822296019  CLST          55          1.0000000000
       547        55  ACO   H23         -10.9978756873       -7.8960382294       -7.0152937674  CLST          55          1.0000000000
       548        55  ACO   H31         -12.4515310654       -9.9956432132       -6.9811992771  CLST          55          1.0000000000
       549        55  ACO   H32         -11.0330205597      -11.0086072952       -7.4494565220  CLST          55          1.0000000000
       550        55  ACO   H33         -11.9365685850      -11.3739062627       -5.9241561308  CLST          55          1.0000000000
       551        56  ACO   O1           10.5648174165        8.6457745894       -7.9718062418  CLST          56          1.0000000000
       552        56  ACO   C1            9.7657725260        9.1644226627       -8.7452491807  CLST          56          1.0000000000
       553        56  ACO   C2            8.6194343191        9.9837022819       -8.2556567922  CLST          56          1.0000000000
       554        56  ACO   C3            9.8799305281        8.9938225894      -10.2223115804  CLST          56          1.0000000000
       555        56  ACO   H21           8.7987748279       10.2770665745       -7.2026229030  CLST          56          1.0000000000
       556        56  ACO   H22           8.5154374459       10.8964788573       -8.8780079351  CLST          56          1.0000000000
       557        56  ACO   H23           7.6828734048        9.3941648871       -8.3187311651  CLST          56          1.0000000000
       558        56  ACO   H31           9.0622161248        8.3407516412      -10.5878665631  CLST          56          1.0000000000
       559        56  ACO   H32           9.8079565060        9.9816641208      -10.7229321577  CLST          56          1.0000000000
       560        56  ACO   H33          10.8569870644        8.5299278458      -10.4634341209  CLST          56          1.0000000000
       561        57  ACO   O1           -4.5710522349        8.6876391253       11.0266704045  CLST          57          1.0000000000
       562        57  ACO   C1           -3.8174947216        7.8536698507       10.5351734865  CLST          57          1.0000000000
       563        57  ACO   C2           -2.4520173859        7.6083809122       11.0807231513  CLST          57          1.0000000000
       564        57  ACO   C3           -4.2233199291        7.0157994261        9.3716068275  CLST          57          1.0000000000
       565        57  ACO   H21          -2.3135497130        8.1910572845       12.0141804658  CLST          57          1.0000000000
       566        57  ACO   H22          -2.3267993689        6.5324129848       11.3124452385  CLST          57          1.0000000000
       567        57  ACO   H23          -1.6865942038        7.9181231952       10.3393543086  CLST          57          1.0000000000
       568        57  ACO   H31          -3.4512387159        7.0830120277        8.5788360910  CLST          57          1.0000000000
       569        57  ACO   H32          -4.3405802760        5.9593727531        9.6870894674  CLST          57          1.0000000000
       570        57  ACO   H33          -5.1881785853        7.3876763051        8.9702468440  CLST          57          1.0000000000
       571        58  ACO   O1            3.6413597476        6.8368168838        7.4665428747  CLST          58          1.0000000000
       572        58  ACO   C1            3.4998605124        7.6028524321        6.5192482696  CLST          58          1.0000000000
       573        58  ACO   C2            4.2299052558        8.8980189425        6.4395404478  CLST          58          1.0000000000
       574        58  ACO   C3            2.5758394943        7.3024586134        5.3913867091  CLST          58          1.0000000000
       575        58  ACO   H21           3.5034081717        9.7361951640        6.4598743522  CLST          58          1.0000000000
       576        58  ACO   H22           4.9184015609        8.9829753199        7.3049708410  CLST          58          1.0000000000
       577        58  ACO   H23           4.8117048358        8.9333068306        5.4971476404  CLST          58          1.0000000000
       578        58  ACO   H31           1.7390050971        8.0295316409        5.3871012737  CLST          58          1.0000000000
       579        58  ACO   H32           3.1243381438        7.3768556222        4.4317166177  CLST          58          1.0000000000
       580        58  ACO   H33           2.1719902451        6.2764714409        5.5063924456  CLST          58          1.0000000000
       581        59  ACO   O1           -0.6748060100       -1.9136538223       -7.5530676647  CLST          59          1.0000000000
       582        59  ACO   C1           -0.0215382310       -1.9057517618       -8.5915032059  CLST          59          1.0000000000
       583        59  ACO   C2           -0.1561348264       -2.9746455414       -9.6189492662  CLST          59          1.0000000000
       584        59  ACO   C3            0.9206134317       -0.8011103257       -8.9114651677  CLST          59          1.0000000000
       585        59  ACO   H21          -0.8193015701       -3.7794199056       -9.2411159878  CLST          59          1.0000000000
       586        59  ACO   H22          -0.5840238720       -2.5468870546      -10.5479550597  CLST          59          1.0000000000
       587        59  ACO   H23           0.8414006179       -3.3999331448       -9.8487418979  CLST          59          1.0000000000
       588        59  ACO   H31           1.9649241323       -1.1320385856       -8.7411112750  CLST          59          1.0000000000
       589        59  ACO   H32           0.8037640177       -0.5011591247       -9.9726474768  CLST          59          1.0000000000
       590        59  ACO   H33           0.6993855811        0.0615473314       -8.2552393156  CLST          59          1.0000000000
       591        60  ACO   O1           -8.1379347262       -5.0804780624       -4.7673376579  CLST          60          1.0000000000
       592        60  ACO   C1           -8.4290034479       -3.8949874827       -4.6394039097  CLST          60          1.0000000000
       593        60  ACO   C2           -7.4383219391       -2.8103303351       -4.8981543845  CLST          60          1.0000000000
       594        60  ACO   C3           -9.7936877883       -3.4611801998       -4.2241506672  CLST          60          1.0000000000
       595        60  ACO   H21          -6.5007601365       -3.2451058958       -5.3031402232  CLST          60          1.0000000000
       596        60  ACO   H22          -7.8529612466       -2.0909791879       -5.6338433209  CLST          60          1.0000000000
       597        60  ACO   H23          -7.2151505048       -2.2803082536       -3.9503910078  CLST          60          1.0000000000
       598        60  ACO   H31          -9.7965885648       -3.2421469824       -3.1366293055  CLST          60          1.0000000000
       599        60  ACO   H32         -10.0928358999       -2.5540536504       -4.7889535963  CLST          60          1.0000000000
       600        60  ACO   H33         -10.5205569340       -4.2737669855       -4.4281265388  CLST          60          1.0000000000
       601        61  ACO   O1           -9.3269606707       -7.8108401818       -0.5125986184  CLST          61          1.0000000000
       602        61  ACO   C1           -9.2014526224       -7.6428802210       -1.7218826023  CLST          61          1.0000000000
       603        61  ACO   C2           -7.9891054137       -8.0912320045       -2.4624140285  CLST          61          1.0000000000
       604        61  ACO   C3          -10.2551419261       -6.9743125308       -2.5355416664  CLST          61          1.0000000000
       605        61  ACO   H21          -7.2390559763       -8.4706086071       -1.7382742492  CLST          61          1.0000000000
       606        61  ACO   H22          -8.2626559013       -8.8978021040       -3.1730283225  CLST          61          1.0000000000
       607        61  ACO   H23          -7.5551869018       -7.2360886015       -3.0204549862  CLST          61          1.0000000000
       608        61  ACO   H31          -9.8620751146       -6.0162158312       -2.9280764156  CLST          61          1.0000000000
       609        61  ACO   H32         -10.5472329015       -7.6300543782       -3.3800716369  CLST          61          1.0000000000
       610        61  ACO   H33         -11.1406799883       -6.7735278035       -1.8988364965  CLST          61          1.0000000000
       611        62  ACO   O1          -11.0262823637       -3.7032475096       -0.8173903332  CLST          62          1.0000000000
       612        62  ACO   C1          -10.5936609000       -4.4197263193        0.0791138794  CLST          62          1.0000000000
       613        62  ACO   C2           -9.1490370338       -4.4184781972        0.4455174785  CLST          62          1.0000000000
       614        62  ACO   C3          -11.4863045700       -5.3212462226        0.8636833002  CLST          62          1.0000000000
       615        62  ACO   H21          -8.5774926082       -3.8676810965       -0.3290178745  CLST          62          1.0000000000
       616        62  ACO   H22          -9.0120407874       -3.9148522713        1.4233136220  CLST          62          1.0000000000
       617        62  ACO   H23          -8.7725202920       -5.4606717899        0.5045594495  CLST          62          1.0000000000
       618        62  ACO   H31         -11.1222843783       -6.3668777775        0.7872329786  CLST          62          1.0000000000
       619        62  ACO   H32         -11.5001697892       -5.0082042318        1.9268434883  CLST          62          1.0000000000
       620        62  ACO   H33         -12.5161611647       -5.2629708851        0.4541691013  CLST          62          1.0000000000
       621        63  ACO   O1           10.7377817839       -9.9287603762        2.5095894190  CLST          63          1.0000000000
       622        63  ACO   C1           11.6358665017       -9.8185405844        1.6808939018  CLST          63          1.0000000000
       623        63  ACO   C2           12.8869074161       -9.0610221362        1.9720708030  CLST          63          1.0000000000
       624        63  ACO   C3           11.5300452394      -10.4355839697        0.3282723867  CLST          63          1.0000000000
       625        63  ACO   H21          12.8661610758       -8.7057913757        3.0226099279  CLST          63          1.0000000000
       626        63  ACO   H22          13.7666967016       -9.7175477805        1.8174894812  CLST          63          1.0000000000
       627        63  ACO   H23          12.9630106584       -8.1879622284        1.2917644959  CLST          63          1.0000000000
       628        63  ACO   H31          11.4512657430       -9.6372907633       -0.4380885029  CLST          63          1.0000000000
       629        63  ACO   H32          12.4291415290      -11.0517433833        0.1231142978  CLST          63          1.0000000000
       630        63  ACO   H33          10.6260968845      -11.0767262084        0.2886973991  CLST          63          1.0000000000
       631        64  ACO   O1          -12.8568513371       -6.9482002326        9.2174378427  CLST          64          1.0000000000
       632        64  ACO   C1          -12.3153374346       -6.0484445703        9.8515376160  CLST          64          1.0000000000
       633        64  ACO   C2          -12.0618764455       -6.1684867356       11.3162924273  CLST          64          1.0000000000
       634        64  ACO   C3          -11.8578138082       -4.7882305163        9.1960937604  CLST          64          1.0000000000
       635        64  ACO   H21         -12.3973541882       -7.1666749714       11.6666525905  CLST          64          1.0000000000
       636        64  ACO   H22         -10.9787156679       -6.0567447820       11.5275684436  CLST          64          1.0000000000
       637        64  ACO   H23         -12.6286755718       -5.3872122574       11.8624112880  CLST          64          1.0000000000
       638        64  ACO   H31         -12.1901742390       -3.9101526069        9.7865930045  CLST          64          1.0000000000
       639        64  ACO   H32         -10.7519436341       -4.7832663895        9.1105694589  CLST          64          1.0000000000
       640        64  ACO   H33         -12.2987396399       -4.7208732498        8.1797313154  CLST          64          1.0000000000
       641        65  ACO   O1            1.5455272187        5.1997497655        1.0969597271  CLST          65          1.0000000000
       642        65  ACO   C1            1.4992404181        6.2520460991        0.4670283590  CLST          65          1.0000000000
       643        65  ACO   C2            1.9871534687        7.5321551042        1.0475765015  CLST          65          1.0000000000
       644        65  ACO   C3            0.9141028067        6.3243681274       -0.9010164833  CLST          65          1.0000000000
       645        65  ACO   H21           2.5442025040        7.3188738634        1.9819639859  CLST          65          1.0000000000
       646        65  ACO   H22           2.6608255780        8.0462567023        0.3314617246  CLST          65          1.0000000000
       647        65  ACO   H23           1.1290994923        8.1927404704        1.2823615410  CLST          65          1.0000000000
       648        65  ACO   H31          -0.0992214101        6.7728833351       -0.8537625254  CLST          65          1.0000000000
       649        65  ACO   H32           1.5610294861        6.9436683263       -1.5560929410  CLST          65          1.0000000000
       650        65  ACO   H33           0.8388352230        5.3019931963       -1.3213339539  CLST          65          1.0000000000
       651        66  ACO   O1            2.2707667703       -8.2749381345       14.3116097904  CLST          66          1.0000000000
       652        66  ACO   C1            1.9303422155       -8.9067674714       13.3149458735  CLST          66          1.0000000000
       653        66  ACO   C2            0.5398063849       -9.4221666227       13.1470678494  CLST          66          1.0000000000
       654        66  ACO   C3            2.8804969358       -9.1645928133       12.1942359173  CLST          66          1.0000000000
       655        66  ACO   H21           0.5655341061      -10.4991469487       12.8873852215  CLST          66          1.0000000000
       656        66  ACO   H22          -0.0158218798       -9.2949350496       14.0977211820  CLST          66          1.0000000000
       657        66  ACO   H23           0.0253801840       -8.8577859429       12.3431309141  CLST          66          1.0000000000
       658        66  ACO   H31           2.4519708799       -8.7845559033       11.2445073998  CLST          66          1.0000000000
       659        66  ACO   H32           3.8337413149       -8.6376931098       12.4008383434  CLST          66          1.0000000000
       660        66  ACO   H33           3.0717422066      -10.2546231280       12.1095920159  CLST          66          1.0000000000
       661        67  ACO   O1           -2.5704925759        4.6924964883       -9.8406523910  CLST          67          1.0000000000
       662        67  ACO   C1           -3.7224464084        4.8526685898      -10.2314040093  CLST          67          1.0000000000
       663        67  ACO   C2           -4.0312306161        5.5439828195      -11.5159151518  CLST          67          1.0000000000
       664        67  ACO   C3           -4.8866862990        4.3674436567       -9.4399292938  CLST          67          1.0000000000
       665        67  ACO   H21          -3.0896846611        5.9005325738      -11.9808291050  CLST          67          1.0000000000
       666        67  ACO   H22          -4.5366463497        4.8396299573      -12.2073705483  CLST          67          1.0000000000
       667        67  ACO   H23          -4.6973359071        6.4104237200      -11.3251605399  CLST          67          1.0000000000
       668        67  ACO   H31          -5.4748901441        5.2315460568       -9.0723870878  CLST          67          1.0000000000
       669        67  ACO   H32          -5.5263163627        3.7253018485      -10.0796208476  CLST          67          1.0000000000
       670        67  ACO   H33          -4.5233897090        3.7781674761       -8.5746693976  CLST          67          1.0000000000
       671        68  ACO   O1           -1.3194206688       -8.1885332338        1.4476379977  CLST          68          1.0000000000
       672        68  ACO   C1           -2.1999269774       -7.4916535901        0.9516998270  CLST          68          1.0000000000
       673        68  ACO   C2           -2.0971439602       -6.9881815506       -0.4457716202  CLST          68          1.0000000000
       674        68  ACO   C3           -3.4276851803       -7.1074666092        1.7052242884  CLST          68          1.0000000000
       675        68  ACO   H21          -1.0928434010       -7.2278948297       -0.8489243406  CLST          68          1.0000000000
       676        68  ACO   H22          -2.8701873621       -7.4746457931       -1.0754300668  CLST          68          1.0000000000
       677        68  ACO   H23          -2.2507768235       -5.8899805510       -0.4617130426  CLST          68          1.0000000000
       678        68  ACO   H31          -3.4442136049       -6.0091577398        1.8628582669  CLST          68          1.0000000000
       679        68  ACO   H32          -4.3290640642       -7.4050460825        1.1309957784  CLST          68          1.0000000000
       680        68  ACO   H33          -3.4350333378       -7.6158826785        2.6909061128  CLST          68          1.0000000000
       681        69  ACO   O1           -0.2620442509        8.3737760189        3.8610773812  CLST          69          1.0000000000
       682        69  ACO   C1           -0.8660889041        7.4197721106        3.3828781464  CLST          69          1.0000000000
       683        69  ACO   C2           -0.6394433966        6.0263894639        3.8630363892  CLST          69          1.0000000000
       684        69  ACO   C3           -1.8470703925        7.5951007772        2.2761965384  CLST          69          1.0000000000
       685        69  ACO   H21          -0.1971138458        6.0540803491        4.8798251356  CLST          69          1.0000000000
       686        69  ACO   H22          -1.6012729143        5.4742558111        3.8969297814  CLST          69          1.0000000000
       687        69  ACO   H23           0.0593223522        5.5061663906        3.1777531012  CLST          69          1.0000000000
       688        69  ACO   H31          -1.4019352729        7.2650911962        1.3163605080  CLST          69          1.0000000000
       689        69  ACO   H32          -2.7582690412        6.9964884326        2.4826101663  CLST          69          1.0000000000
       690        69  ACO   H33          -2.1271171820        8.6662758320        2.2024619852  CLST          69          1.0000000000
       691        70  ACO   O1           -4.2644581445       10.1018112417        2.7685954965  CLST          70          1.0000000000
       692        70  ACO   C1           -4.9266505170       11.1286344547        2.6533289693  CLST          70          1.0000000000
       693        70  ACO   C2           -4.7368879747       12.2940260841        3.5622726920  CLST          70          1.0000000000
       694        70  ACO   C3           -5.9575676798       11.2891757659        1.5910536583  CLST          70          1.0000000000
       695        70  ACO   H21          -4.0123688074       12.0236722392        4.3565683318  CLST          70          1.0000000000
       696        70  ACO   H22          -4.3483110942       13.1558110185        2.9819695841  CLST          70          1.0000000000
       697        70  ACO   H23          -5.7060296868       12.5669525705        4.0264569249  CLST          70          1.0000000000
       698        70  ACO   H31          -6.9303129753       11.5652377002        2.0476580016  CLST          70          1.0000000000
       699        70  ACO   H32          -5.6435293501       12.0833633717        0.8854979268  CLST          70          1.0000000000
       700        70  ACO   H33          -6.0690160537       10.3345770022        1.0389763802  CLST          70          1.0000000000
       701        71  ACO   O1           -9.4397711539        0.7796505787        5.6691670694  CLST          71          1.0000000000
       702        71  ACO   C1          -10.4841709455        0.1577144194        5.5058900429  CLST          71          1.0000000000
       703        71  ACO   C2          -11.2309217975       -0.4472281662        6.6440897892  CLST          71          1.0000000000
       704        71  ACO   C3          -11.0655461827       -0.0582039518        4.1524999428  CLST          71          1.0000000000
       705        71  ACO   H21         -10.6259686394       -0.3608181639        7.5673323664  CLST          71          1.0000000000
       706        71  ACO   H22         -12.1911208178        0.0892423465        6.7877176680  CLST          71          1.0000000000
       707        71  ACO   H23         -11.4325385807       -1.5189605934        6.4411378061  CLST          71          1.0000000000
       708        71  ACO   H31         -10.9078626260       -1.1114033535        3.8442429510  CLST          71          1.0000000000
       709        71  ACO   H32         -12.1503705742        0.1700456727        4.1689337099  CLST          71          1.0000000000
       710        71  ACO   H33         -10.5605080122        0.6128249060        3.4279732550  CLST          71          1.0000000000
       711        72  ACO   O1            8.0345928046        1.1818123896      -10.8591361122  CLST          72          1.0000000000
       712        72  ACO   C1            7.8599877996        1.8081724678      -11.8998293612  CLST          72          1.0000000000
       713        72  ACO   C2            8.8881215149        2.7515196673      -12.4207275593  CLST          72          1.0000000000
       714        72  ACO   C3            6.6248001810        1.6464949625      -12.7201485355  CLST          72          1.0000000000
       715        72  ACO   H21           9.6493893114        2.9383309016      -11.6372684731  CLST          72          1.0000000000
       716        72  ACO   H22           9.3817850034        2.3096491657      -13.3100437674  CLST          72          1.0000000000
       717        72  ACO   H23           8.4150813639        3.7138114549      -12.7025236819  CLST          72          1.0000000000
       718        72  ACO   H31           6.1136971869        2.6250312335      -12.8247603395  CLST          72          1.0000000000
       719        72  ACO   H32           6.8933848702        1.2662134010      -13.7266942356  CLST          72          1.0000000000
       720        72  ACO   H33           5.9400786043        0.9270419083      -12.2262437464  CLST          72          1.0000000000
       721        73  ACO   O1           -8.3887713878       -3.4593348411      -11.1929300489  CLST          73          1.0000000000
       722        73  ACO   C1           -7.1911856801       -3.6066464769      -11.4094213761  CLST          73          1.0000000000
       723        73  ACO   C2           -6.1640187614       -2.8336328089      -10.6570833314  CLST          73          1.0000000000
       724        73  ACO   C3           -6.6914096883       -4.5860570119      -12.4159431439  CLST          73          1.0000000000
       725        73  ACO   H21          -6.6675205055       -2.0564422749      -10.0459285592  CLST          73          1.0000000000
       726        73  ACO   H22          -5.5988624144       -3.5133530379       -9.9855131123  CLST          73          1.0000000000
       727        73  ACO   H23          -5.4671919620       -2.3418042603      -11.3653821047  CLST          73          1.0000000000
       728        73  ACO   H31          -6.1838422551       -4.0476304250      -13.2425910418  CLST          73          1.0000000000
       729        73  ACO   H32          -5.9841392481       -5.2930443537      -11.9371696846  CLST          73          1.0000000000
       730        73  ACO   H33          -7.5511499744       -5.1519158436      -12.8307612073  CLST          73          1.0000000000
       731        74  ACO   O1           -2.4340243595      -11.3288993379        6.5073383754  CLST          74          1.0000000000
       732        74  ACO   C1           -2.5949621985      -11.3811636588        5.2925373692  CLST          74          1.0000000000
       733        74  ACO   C2           -2.6211416181      -12.6781894993        4.5601836817  CLST          74          1.0000000000
       734        74  ACO   C3           -2.7778872490      -10.1522376294        4.4710406804  CLST          74          1.0000000000
       735        74  ACO   H21          -1.8120387228      -12.6973697128        3.8021261599  CLST          74          1.0000000000
       736        74  ACO   H22          -2.4768340762      -13.5100755395        5.2788834558  CLST          74          1.0000000000
       737        74  ACO   H23          -3.5989903909      -12.7970274268        4.0494992434  CLST          74          1.0000000000
       738        74  ACO   H31          -1.9786458190      -10.0845345840        3.7063619034  CLST          74          1.0000000000
       739        74  ACO   H32          -3.7671171156      -10.1789142877        3.9705193826  CLST          74          1.0000000000
       740        74  ACO   H33          -2.7267996858       -9.2629070221        5.1305472705  CLST          74          1.0000000000
       741        75  ACO   O1           -3.1032997434       -6.3428311995       12.3554782707  CLST          75          1.0000000000
       742        75  ACO   C1           -3.2926480015       -7.2794259673       11.5851044413  CLST          75          1.0000000000
       743        75  ACO   C2           -2.5649623282       -7.4028422091       10.2893291599  CLST          75          1.0000000000
       744        75  ACO   C3           -4.2746071722       -8.3579346225       11.8915267330  CLST          75          1.0000000000
       745        75  ACO   H21          -1.7292137225       -6.6741363667       10.2665943985  CLST          75          1.0000000000
       746        75  ACO   H22          -2.1536220288       -8.4265247793       10.1811077315  CLST          75          1.0000000000
       747        75  ACO   H23          -3.2553743022       -7.1853656975        9.4486013508  CLST          75          1.0000000000
       748        75  ACO   H31          -5.0216064033       -8.4246144533       11.0743273236  CLST          75          1.0000000000
       749        75  ACO   H32          -3.7477064821       -9.3283800763       11.9939033264  CLST          75          1.0000000000
       750        75  ACO   H33          -4.7937130036       -8.1186631739       12.8418538443  CLST          75          1.0000000000
       751        76  ACO   O1           -2.9490686657        2.3242218259       -2.9053444244  CLST          76          1.0000000000
       752        76  ACO   C1           -1.7835167042        2.0973842490       -2.5930883526  CLST          76          1.0000000000
       753        76  ACO   C2           -0.6697865881        3.0005532041       -2.9965097158  CLST          76          1.0000000000
       754        76  ACO   C3           -1.3992751333        0.8990226710       -1.7945084303  CLST          76          1.0000000000
       755        76  ACO   H21          -1.0880556219        3.9565390512       -3.3728138275  CLST          76          1.0000000000
       756        76  ACO   H22          -0.0127921568        3.2026218799       -2.1264740996  CLST          76          1.0000000000
       757        76  ACO   H23          -0.0747301842        2.5241162804       -3.8020342319  CLST          76          1.0000000000
       758        76  ACO   H31          -0.6997912569        0.2636633339       -2.3753042929  CLST          76          1.0000000000
       759        76  ACO   H32          -0.9009861129        1.2146656867       -0.8557797103  CLST          76          1.0000000000
       760        76  ACO   H33          -2.3071641516        0.3144753050       -1.5424355916  CLST          76          1.0000000000
       761        77  ACO   O1           -2.7560734527       -0.2956584168       11.3720594451  CLST          77          1.0000000000
       762        77  ACO   C1           -3.8117903729       -0.0974265421       10.7813069147  CLST          77          1.0000000000
       763        77  ACO   C2           -3.8561884936        0.5616490975        9.4452855695  CLST          77          1.0000000000
       764        77  ACO   C3           -5.1182444688       -0.4937080915       11.3736552180  CLST          77          1.0000000000
       765        77  ACO   H21          -2.8235888001        0.8065906550        9.1195564864  CLST          77          1.0000000000
       766        77  ACO   H22          -4.3202781406       -0.1204314113        8.7037362574  CLST          77          1.0000000000
       767        77  ACO   H23          -4.4473505971        1.4973967035        9.5074235843  CLST          77          1.0000000000
       768        77  ACO   H31          -5.7681532389        0.3962450434       11.4923100404  CLST          77          1.0000000000
       769        77  ACO   H32          -5.6168354074       -1.2285960941       10.7108569991  CLST          77          1.0000000000
       770        77  ACO   H33          -4.9491666238       -0.9604275526       12.3659424819  CLST          77          1.0000000000
       771        78  ACO   O1           -7.1020453128       -1.2690126590        8.6909883105  CLST          78          1.0000000000
       772        78  ACO   C1           -7.6531973008       -0.1844847519        8.8521188237  CLST          78          1.0000000000
       773        78  ACO   C2           -7.2012886201        1.0347962595        8.1292763276  CLST          78          1.0000000000
       774        78  ACO   C3           -8.7756187616        0.0020968414        9.8164290616  CLST          78          1.0000000000
       775        78  ACO   H21          -6.3876950203        0.7640683945        7.4272559664  CLST          78          1.0000000000
       776        78  ACO   H22          -8.0509000634        1.4585432655        7.5567879194  CLST          78          1.0000000000
       777        78  ACO   H23          -6.8315010552        1.7909219532        8.8514020191  CLST          78          1.0000000000
       778        78  ACO   H31          -8.3998361997        0.4939737092       10.7360762181  CLST          78          1.0000000000
       779        78  ACO   H32          -9.5643007583        0.6345465167        9.3579197670  CLST          78          1.0000000000
       780        78  ACO   H33          -9.2022082903       -0.9872491025       10.0787643373  CLST          78          1.0000000000
       781        79  ACO   O1            4.9045884111       -5.9546121172       10.0522086315  CLST          79          1.0000000000
       782        79  ACO   C1            5.9949702712       -5.9909164178       10.6114876489  CLST          79          1.0000000000
       783        79  ACO   C2            7.2716131438       -5.9867084696        9.8435355396  CLST          79          1.0000000000
       784        79  ACO   C3            6.1096328777       -6.0359414054       12.0970641090  CLST          79          1.0000000000
       785        79  ACO   H21           7.0506403049       -5.9671865453        8.7566879380  CLST          79          1.0000000000
       786        79  ACO   H22           7.8736233603       -5.0964685192       10.1153493357  CLST          79          1.0000000000
       787        79  ACO   H23           7.8539190756       -6.9016246436       10.0751994870  CLST          79          1.0000000000
       788        79  ACO   H31           6.7781055446       -6.8674038614       12.3983367586  CLST          79          1.0000000000
       789        79  ACO   H32           6.5234839597       -5.0775946698       12.4719386989  CLST          79          1.0000000000
       790        79  ACO   H33           5.1044741601       -6.1981088328       12.5367358280  CLST          79          1.0000000000
       791        80  ACO   O1            2.6738711005        7.0682119436       -7.9698440613  CLST          80          1.0000000000
       792        80  ACO   C1            3.0830149611        5.9334940840       -8.1930439275  CLST          80          1.0000000000
       793        80  ACO   C2            4.3124308991        5.4053576496       -7.5338765120  CLST          80          1.0000000000
       794        80  ACO   C3            2.3624304948        5.0103431822       -9.1150057908  CLST          80          1.0000000000
       795        80  ACO   H21           4.7788831109        6.2167867620       -6.9381123252  CLST          80          1.0000000000
       796        80  ACO   H22           4.0562657081        4.5615393602       -6.8640599187  CLST          80          1.0000000000
       797        80  ACO   H23           5.0335504842        5.0573701358       -8.3006471173  CLST          80          1.0000000000
       798        80  ACO   H31           3.0803301080        4.5406716790       -9.8192440673  CLST          80          1.0000000000
       799        80  ACO   H32           1.8496749551        4.2221821034       -8.5284372825  CLST          80          1.0000000000
       800        80  ACO   H33           1.6097136435        5.5853610943       -9.6915380639  CLST          80          1.0000000000
       801        81  ACO   O1            5.8342557879       -1.5828190905        8.0054902322  CLST          81          1.0000000000
       802        81  ACO   C1            4.6590818116       -1.6049219535        8.3581365522  CLST          81          1.0000000000
       803        81  ACO   C2            3.9031114072       -0.3529563582        8.6464741929  CLST          81          1.0000000000
       804        81  ACO   C3            3.9055043965       -2.8805367233        8.5145482394  CLST          81          1.0000000000
       805        81  ACO   H21           4.5666452769        0.5208409084        8.4836764032  CLST          81          1.0000000000
       806        81  ACO   H22           3.0332095208       -0.2782829876        7.9631506726  CLST          81          1.0000000000
       807        81  ACO   H23           3.5516188768       -0.3566067514        9.6983977003  CLST          81          1.0000000000
       808        81  ACO   H31           3.4439409808       -2.9254652358        9.5207100932  CLST          81          1.0000000000
       809        81  ACO   H32           3.1126003305       -2.9465554915        7.7406296189  CLST          81          1.0000000000
       810        81  ACO   H33           4.5977271043       -3.7393146373        8.3910647855  CLST          81          1.0000000000
       811        82  ACO   O1           13.8348638841       -5.0564703200        4.3868499617  CLST          82          1.0000000000
       812        82  ACO   C1           13.3978506320       -3.9303358735        4.6039009210  CLST          82          1.0000000000
       813        82  ACO   C2           12.0722400807       -3.7094884409        5.2491566367  CLST          82          1.0000000000
       814        82  ACO   C3           14.1713884928       -2.7085003357        4.2415498795  CLST          82          1.0000000000
       815        82  ACO   H21          11.6272442334       -4.6890596146        5.5196514896  CLST          82          1.0000000000
       816        82  ACO   H22          12.1937590894       -3.0970738821        6.1655922376  CLST          82          1.0000000000
       817        82  ACO   H23          11.3956961612       -3.1902826765        4.5396214377  CLST          82          1.0000000000
       818        82  ACO   H31          13.5258895726       -2.0132716401        3.6673695355  CLST          82          1.0000000000
       819        82  ACO   H32          14.5311314986       -2.2088617458        5.1638844409  CLST          82          1.0000000000
       820        82  ACO   H33          15.0366569462       -3.0006797922        3.6137374368  CLST          82          1.0000000000
       821        83  ACO   O1            0.3618541310      -14.3169572251        9.3007869412  CLST          83          1.0000000000
       822        83  ACO   C1            0.0839142330      -13.1860383390        8.9113702490  CLST          83          1.0000000000
       823        83  ACO   C2           -0.8857497039      -12.3160647536        9.6369418331  CLST          83          1.0000000000
       824        83  ACO   C3            0.7015455226      -12.6014705059        7.6862737940  CLST          83          1.0000000000
       825        83  ACO   H21          -1.3555411210      -12.8944720693       10.4588824327  CLST          83          1.0000000000
       826        83  ACO   H22          -0.3574501892      -11.4382440523       10.0606808611  CLST          83          1.0000000000
       827        83  ACO   H23          -1.6759328446      -11.9737309128        8.9370887439  CLST          83          1.0000000000
       828        83  ACO   H31          -0.0919908014      -12.3362372425        6.9586859084  CLST          83          1.0000000000
       829        83  ACO   H32           1.2700840479      -11.6875814496        7.9542463525  CLST          83          1.0000000000
       830        83  ACO   H33           1.3871662784      -13.3435666194        7.2292215339  CLST          83          1.0000000000
       831        84  ACO   O1            3.2988410733        0.5637305450        5.4512280208  CLST          84          1.0000000000
       832        84  ACO   C1            4.3363727003        0.0009856417        5.1158268752  CLST          84          1.0000000000
       833        84  ACO   C2            4.3415131018       -1.4065313105        4.6233542452  CLST          84          1.0000000000
       834        84  ACO   C3            5.6586938125        0.6823982811        5.2190581229  CLST          84          1.0000000000
       835        84  ACO   H21           3.2989292518       -1.7785926023        4.5485433313  CLST          84          1.0000000000
       836        84  ACO   H22           4.8202147033       -1.4653761578        3.6255028746  CLST          84          1.0000000000
       837        84  ACO   H23           4.8986475698       -2.0485208569        5.3350288371  CLST          84          1.0000000000
       838        84  ACO   H31           6.2391213131        0.2437430231        6.0565758789  CLST          84          1.0000000000
       839        84  ACO   H32           6.2227392354        0.5640144228        4.2725893588  CLST          84          1.0000000000
       840        84  ACO   H33           5.4948721359        1.7616063301        5.4117990019  CLST          84          1.0000000000
       841        85  ACO   O1          -11.0612558226       -5.6863466591       -8.9234033884  CLST          85          1.0000000000
       842        85  ACO   C1           -9.8532721933       -5.4813002163       -8.8708961559  CLST          85          1.0000000000
       843        85  ACO   C2           -9.2773334672       -4.3971390103       -8.0270233591  CLST          85          1.0000000000
       844        85  ACO   C3           -8.8876159775       -6.3119436828       -9.6447948199  CLST          85          1.0000000000
       845        85  ACO   H21         -10.0884803251       -3.9174047220       -7.4417790812  CLST          85          1.0000000000
       846        85  ACO   H22          -8.5280884007       -4.8274223086       -7.3323785396  CLST          85          1.0000000000
       847        85  ACO   H23          -8.7908087307       -3.6371999580       -8.6713555301  CLST          85          1.0000000000
       848        85  ACO   H31          -9.0745945008       -6.1729362316      -10.7297937202  CLST          85          1.0000000000
       849        85  ACO   H32          -7.8473168889       -6.0086683246       -9.4091128408  CLST          85          1.0000000000
       850        85  ACO   H33          -9.0328826819       -7.3787958828       -9.3819047949  CLST          85          1.0000000000
       851        86  ACO   O1            2.4609339091       -2.0212055841      -11.4392171657  CLST          86          1.0000000000
       852        86  ACO   C1            2.3003851169       -1.3046646599      -12.4214665865  CLST          86          1.0000000000
       853        86  ACO   C2            1.3971429118       -1.7009476139      -13.5382337507  CLST          86          1.0000000000
       854        86  ACO   C3            3.0168822516       -0.0079068172      -12.5701545858  CLST          86          1.0000000000
       855        86  ACO   H21           1.0848128619       -2.7559788704      -13.3990302530  CLST          86          1.0000000000
       856        86  ACO   H22           0.4957648880       -1.0550482926      -13.5271833408  CLST          86          1.0000000000
       857        86  ACO   H23           1.9245193210       -1.5909522201      -14.5070213646  CLST          86          1.0000000000
       858        86  ACO   H31           3.7822153838       -0.0915939243      -13.3675520562  CLST          86          1.0000000000
       859        86  ACO   H32           2.2927695502        0.7887389484      -12.8323193919  CLST          86          1.0000000000
       860        86  ACO   H33           3.5087040687        0.2531848628      -11.6127011486  CLST          86          1.0000000000
       861        87  ACO   O1            8.0366979270       -0.0383739548       12.3846366714  CLST          87          1.0000000000
       862        87  ACO   C1            7.4726490652       -1.0053355117       11.8816581927  CLST          87          1.0000000000
       863        87  ACO   C2            6.0869165348       -1.3987008062       12.2674438129  CLST          87          1.0000000000
       864        87  ACO   C3            8.1304490868       -1.8598123398       10.8517795962  CLST          87          1.0000000000
       865        87  ACO   H21           5.7441652031       -0.7664080312       13.1115336930  CLST          87          1.0000000000
       866        87  ACO   H22           5.4035059077       -1.2572286426       11.4063657158  CLST          87          1.0000000000
       867        87  ACO   H23           6.0723793960       -2.4624894183       12.5778807934  CLST          87          1.0000000000
       868        87  ACO   H31           8.2676421775       -2.8867384876       11.2490078776  CLST          87          1.0000000000
       869        87  ACO   H32           7.5003659401       -1.8942845904        9.9391583178  CLST          87          1.0000000000
       870        87  ACO   H33           9.1216678073       -1.4339555396       10.5933995400  CLST          87          1.0000000000
       871        88  ACO   O1            8.9588116957        9.3788434780       11.8313671196  CLST          88          1.0000000000
       872        88  ACO   C1            8.1911816191        9.8903127670       11.0224664926  CLST          88          1.0000000000
       873        88  ACO   C2            7.3347567275       11.0563399530       11.3817194777  CLST          88          1.0000000000
       874        88  ACO   C3            8.0717934693        9.3882943379        9.6238625838  CLST          88          1.0000000000
       875        88  ACO   H21           7.6166405938       11.4155677766       12.3925402281  CLST          88          1.0000000000
       876        88  ACO   H22           7.4828952220       11.8732973644       10.6471596954  CLST          88          1.0000000000
       877        88  ACO   H23           6.2699394057       10.7443467035       11.3858825722  CLST          88          1.0000000000
       878        88  ACO   H31           7.0096183194        9.1728826844        9.3884150191  CLST          88          1.0000000000
       879        88  ACO   H32           8.4672907886       10.1420508779        8.9137020165  CLST          88          1.0000000000
       880        88  ACO   H33           8.6610868813        8.4550296309        9.5241488147  CLST          88          1.0000000000
       881        89  ACO   O1            6.2723639219       -3.5318755526        2.1754467966  CLST          89          1.0000000000
       882        89  ACO   C1            7.0480185685       -3.6863017573        1.2375630245  CLST          89          1.0000000000
       883        89  ACO   C2            6.5894224616       -4.1788866860       -0.0898482479  CLST          89          1.0000000000
       884        89  ACO   C3            8.4969740009       -3.3597370400        1.3458587699  CLST          89          1.0000000000
       885        89  ACO   H21           5.5727880277       -4.6115417139        0.0088988322  CLST          89          1.0000000000
       886        89  ACO   H22           6.5573666236       -3.3341504958       -0.8075069933  CLST          89          1.0000000000
       887        89  ACO   H23           7.2884896207       -4.9556282600       -0.4617580779  CLST          89          1.0000000000
       888        89  ACO   H31           9.1069839072       -4.2413305870        1.0615974522  CLST          89          1.0000000000
       889        89  ACO   H32           8.7396106858       -2.5161149222        0.6682252445  CLST          89          1.0000000000
       890        89  ACO   H33           8.7348815299       -3.0733526464        2.3905109106  CLST          89          1.0000000000
       891        90  ACO   O1            0.6744814820        4.3105811783       -5.6247210012  CLST          90          1.0000000000
       892        90  ACO   C1            1.1817508632        5.3255583705       -5.1593623806  CLST          90          1.0000000000
       893        90  ACO   C2            2.4510881940        5.2808974258       -4.3789075039  CLST          90          1.0000000000
       894        90  ACO   C3            0.5541478751        6.6630550461       -5.3358959823  CLST          90          1.0000000000
       895        90  ACO   H21           2.9240056593        4.2849412006       -4.4943530289  CLST          90          1.0000000000
       896        90  ACO   H22           3.1478313539        6.0629999670       -4.7454156181  CLST          90          1.0000000000
       897        90  ACO   H23           2.2407374907        5.4581702028       -3.3060152964  CLST          90          1.0000000000
       898        90  ACO   H31           0.2384359864        7.0672714742       -4.3520385955  CLST          90          1.0000000000
       899        90  ACO   H32           1.2793524699        7.3536753297       -5.8100457204  CLST          90          1.0000000000
       900        90  ACO   H33          -0.3301287343        6.5692994777       -5.9964442278  CLST          90          1.0000000000
       901        91  ACO   O1            0.8946075740        8.3402723341       10.5758448015  CLST          91          1.0000000000
       902        91  ACO   C1            1.4404130535        9.4365230031       10.4889350014  CLST          91          1.0000000000
       903        91  ACO   C2            0.9589817173       10.6192108585       11.2521671911  CLST          91          1.0000000000
       904        91  ACO   C3            2.6180302349        9.6727309393        9.6081037956  CLST          91          1.0000000000
       905        91  ACO   H21           0.2164892230       10.2904754663       12.0038129223  CLST          91          1.0000000000
       906        91  ACO   H22           1.8132985696       11.0889420063       11.7794059110  CLST          91          1.0000000000
       907        91  ACO   H23           0.4977167952       11.3560974070       10.5616681595  CLST          91          1.0000000000
       908        91  ACO   H31           2.3615044600       10.4102300578        8.8200856262  CLST          91          1.0000000000
       909        91  ACO   H32           3.4688722723       10.0534654118       10.2096726734  CLST          91          1.0000000000
       910        91  ACO   H33           2.9147786803        8.7158169339        9.1350060310  CLST          91          1.0000000000
       911        92  ACO   O1           -3.4043160083        9.3875135499        7.2405876222  CLST          92          1.0000000000
       912        92  ACO   C1           -4.2015528411        8.9742730741        6.4044002245  CLST          92          1.0000000000
       913        92  ACO   C2           -5.5786012735        9.5290704379        6.2947805780  CLST          92          1.0000000000
       914        92  ACO   C3           -3.8530630633        7.8745048781        5.4617654434  CLST          92          1.0000000000
       915        92  ACO   H21          -5.7208626785       10.3100055927        7.0685306035  CLST          92          1.0000000000
       916        92  ACO   H22          -5.7196424244        9.9779527438        5.2909444907  CLST          92          1.0000000000
       917        92  ACO   H23          -6.3270086784        8.7231349443        6.4420963183  CLST          92          1.0000000000
       918        92  ACO   H31          -4.5360689224        7.0137611055        5.6134582391  CLST          92          1.0000000000
       919        92  ACO   H32          -3.9436588137        8.2379114115        4.4175868631  CLST          92          1.0000000000
       920        92  ACO   H33          -2.8072093181        7.5565757945        5.6469118755  CLST          92          1.0000000000
       921        93  ACO   O1           -8.4065981351        7.1750548106       -4.7387879124  CLST          93          1.0000000000
       922        93  ACO   C1           -7.9813086902        6.2076422124       -5.3629933044  CLST          93          1.0000000000
       923        93  ACO   C2           -8.1043868205        6.1084106947       -6.8449345456  CLST          93          1.0000000000
       924        93  ACO   C3           -7.3098318474        5.0654336055       -4.6820466327  CLST          93          1.0000000000
       925        93  ACO   H21          -8.6362138765        7.0022758847       -7.2283832165  CLST          93          1.0000000000
       926        93  ACO   H22          -7.0934984426        6.0597059444       -7.2986757533  CLST          93          1.0000000000
       927        93  ACO   H23          -8.6796137712        5.1977003850       -7.1117558845  CLST          93          1.0000000000
       928        93  ACO   H31          -7.7476654530        4.1140140387       -5.0425928561  CLST          93          1.0000000000
       929        93  ACO   H32          -6.2247576197        5.0812635005       -4.9026386343  CLST          93          1.0000000000
       930        93  ACO   H33          -7.4684727683        5.1456868036       -3.5887850721  CLST          93          1.0000000000
       931        94  ACO   O1           -6.1110572203        0.9748623339       -9.6538010305  CLST          94          1.0000000000
       932        94  ACO   C1           -7.0905142682        1.1408655480       -8.9347073974  CLST          94          1.0000000000
       933        94  ACO   C2           -7.4260704167        0.1988360237       -7.8279377362  CLST          94          1.0000000000
       934        94  ACO   C3           -7.9942033453        2.3130262301       -9.1023851497  CLST          94          1.0000000000
       935        94  ACO   H21          -6.9070929965       -0.7664971701       -8.0002617691  CLST          94          1.0000000000
       936        94  ACO   H22          -7.0812429246        0.6215449745       -6.8635479074  CLST          94          1.0000000000
       937        94  ACO   H23          -8.5206584841        0.0260127718       -7.7861804381  CLST          94          1.0000000000
       938        94  ACO   H31          -9.0364685857        1.9649694669       -9.2437430285  CLST          94          1.0000000000
       939        94  ACO   H32          -7.9415940166        2.9665416304       -8.2083630122  CLST          94          1.0000000000
       940        94  ACO   H33          -7.6884632085        2.8920086326       -9.9984842772  CLST          94          1.0000000000
       941        95  ACO   O1            7.2283361069       10.5801175869      -11.1540028442  CLST          95          1.0000000000
       942        95  ACO   C1            6.6438291112       10.4249373359      -12.2205405241  CLST          95          1.0000000000
       943        95  ACO   C2            5.6456776889       11.4101717728      -12.7244952659  CLST          95          1.0000000000
       944        95  ACO   C3            6.8834199132        9.2258583999      -13.0713047329  CLST          95          1.0000000000
       945        95  ACO   H21           5.5039706629       12.2077551874      -11.9654330194  CLST          95          1.0000000000
       946        95  ACO   H22           6.0083477516       11.8626877113      -13.6697282002  CLST          95          1.0000000000
       947        95  ACO   H23           4.6778984818       10.9001527564      -12.9066302369  CLST          95          1.0000000000
       948        95  ACO   H31           5.9906422475        8.5696769492      -13.0488559015  CLST          95          1.0000000000
       949        95  ACO   H32           7.0876376230        9.5336576302      -14.1158129761  CLST          95          1.0000000000
       950        95  ACO   H33           7.7574792592        8.6655526851      -12.6826961735  CLST          95          1.0000000000
       951        96  ACO   O1           13.3584467432        6.7080836431       10.2984333038  CLST          96          1.0000000000
       952        96  ACO   C1           12.2422027409        7.0487025939       10.6776041104  CLST          96          1.0000000000
       953        96  ACO   C2           11.0468555664        6.1799110431       10.4884027015  CLST          96          1.0000000000
       954        96  ACO   C3           12.0114935899        8.3510333000       11.3641014880  CLST          96          1.0000000000
       955        96  ACO   H21          10.2722091854        6.7272219750        9.9140955591  CLST          96          1.0000000000
       956        96  ACO   H22          11.3386339504        5.2679026100        9.9285182510  CLST          96          1.0000000000
       957        96  ACO   H23          10.6362460089        5.8933392208       11.4763078076  CLST          96          1.0000000000
       958        96  ACO   H31          11.3783306376        9.0010404445       10.7256441937  CLST          96          1.0000000000
       959        96  ACO   H32          11.4939147905        8.1818078394       12.3310625883  CLST          96          1.0000000000
       960        96  ACO   H33          12.9852551303        8.8489039318       11.5468931334  CLST          96          1.0000000000
       961        97  ACO   O1           -5.8279659430      -11.6258675145        3.3436565325  CLST          97          1.0000000000
       962        97  ACO   C1           -6.0358801016      -11.6582777591        2.1345353718  CLST          97          1.0000000000
       963        97  ACO   C2           -5.7952252920      -10.4717786590        1.2628624313  CLST          97          1.0000000000
       964        97  ACO   C3           -6.5602054621      -12.8796538600        1.4611668520  CLST          97          1.0000000000
       965        97  ACO   H21          -5.1315488130      -10.7532872967        0.4189683290  CLST          97          1.0000000000
       966        97  ACO   H22          -6.7578662096      -10.0955022345        0.8609154854  CLST          97          1.0000000000
       967        97  ACO   H23          -5.3111480130       -9.6705875074        1.8579151670  CLST          97          1.0000000000
       968        97  ACO   H31          -7.4885301540      -12.6346312049        0.9061152481  CLST          97          1.0000000000
       969        97  ACO   H32          -5.7962001794      -13.2744904892        0.7600425121  CLST          97          1.0000000000
       970        97  ACO   H33          -6.7876029043      -13.6528494204        2.2236224571  CLST          97          1.0000000000
       971        98  ACO   O1           -6.9821522254       -7.1755654540       10.1030228721  CLST          98          1.0000000000
       972        98  ACO   C1           -7.9850169062       -7.7448176300        9.6869671364  CLST          98          1.0000000000
       973        98  ACO   C2           -8.6130165368       -7.3663855705        8.3914875015  CLST          98          1.0000000000
       974        98  ACO   C3           -8.6465490292       -8.8345463581       10.4584115358  CLST          98          1.0000000000
       975        98  ACO   H21          -8.0589886350       -6.5121241308        7.9544255324  CLST          98          1.0000000000
       976        98  ACO   H22          -8.5684430705       -8.2234662031        7.6892948839  CLST          98          1.0000000000
       977        98  ACO   H23          -9.6687563519       -7.0688436320        8.5502653471  CLST          98          1.0000000000
       978        98  ACO   H31          -9.6882627693       -8.5446306085       10.7043106902  CLST          98          1.0000000000
       979        98  ACO   H32          -8.6516375239       -9.7665860094        9.8566424481  CLST          98          1.0000000000
       980        98  ACO   H33          -8.0821069767       -9.0090833760       11.3972844561  CLST          98          1.0000000000
       981        99  ACO   O1           11.8435213945       -2.5364489802        1.8106102122  CLST          99          1.0000000000
       982        99  ACO   C1           11.4223798754       -1.4394100477        1.4583547713  CLST          99          1.0000000000
       983        99  ACO   C2           11.6167859281       -0.9210052436        0.0769686369  CLST          99          1.0000000000
       984        99  ACO   C3           10.6757682437       -0.5456950169        2.3839857717  CLST          99          1.0000000000
       985        99  ACO   H21          12.0176057212       -1.7319584770       -0.5655524245  CLST          99          1.0000000000
       986        99  ACO   H22          10.6420777066       -0.5780916856       -0.3240644862  CLST          99          1.0000000000
       987        99  ACO   H23          12.3276698365       -0.0714489930        0.0940886717  CLST          99          1.0000000000
       988        99  ACO   H31          11.1423778546        0.4602599787        2.3892431177  CLST          99          1.0000000000
       989        99  ACO   H32           9.6202777388       -0.4582319577        2.0572142244  CLST          99          1.0000000000
       990        99  ACO   H33          10.7064261600       -0.9690882788        3.4079645484  CLST          99          1.0000000000
       991       100  ACO   O1           -0.9741266015       -3.9713503223      -12.6213152919  CLST         100          1.0000000000
       992       100  ACO   C1           -2.1865179831       -4.1501134748      -12.6312330590  CLST         100          1.0000000000
       993       100  ACO   C2           -3.0572222723       -3.5310278253      -13.6694347018  CLST         100          1.0000000000
       994       100  ACO   C3           -2.8633609575       -4.9955720791      -11.6067423089  CLST         100          1.0000000000
       995       100  ACO   H21          -2.4284123106       -2.9385711822      -14.3655486911  CLST         100          1.0000000000
       996       100  ACO   H22          -3.5742679959       -4.3302614244      -14.2377767225  CLST         100          1.0000000000
       997       100  ACO   H23          -3.8046008968       -2.8660973182      -13.1926401332  CLST         100          1.0000000000
       998       100  ACO   H31          -3.6615593396       -4.4168900659      -11.1016580045  CLST         100          1.0000000000
       999       100  ACO   H32          -3.2966843211       -5.8951754039      -12.0894908344  CLST         100          1.0000000000
      1000       100  ACO   H33          -2.1212760519       -5.3127967678      -10.8456525435  CLST         100          1.0000000000
      1001       101  ACO   O1            8.6518786528        8.7336855779       -2.6599139005  CLST         101          1.0000000000
      1002       101  ACO   C1            8.5257288258        8.9527150788       -3.8602092512  CLST         101          1.0000000000
      1003       101  ACO   C2            7.5275489578        9.9296333235       -4.3799827533  CLST         101          1.0000000000
      1004       101  ACO   C3            9.3743249183        8.2637136476       -4.8743927130  CLST         101          1.0000000000
      1005       101  ACO   H21           6.8871072552       10.2754707040       -3.5436042111  CLST         101          1.0000000000
      1006       101  ACO   H22           8.0487105087       10.7995264134       -4.8277911966  CLST         101          1.0000000000
      1007       101  ACO   H23           6.8882611564        9.4424709542       -5.1449974997  CLST         101          1.0000000000
      1008       101  ACO   H31           8.7331199516        7.7576196892       -5.6254310191  CLST         101          1.0000000000
      1009       101  ACO   H32          10.0256630775        9.0005936795       -5.3873804849  CLST         101          1.0000000000
      1010       101  ACO   H33          10.0089744013        7.5090098607       -4.3689940602  CLST         101          1.0000000000
      1011       102  ACO   O1            2.9355973420       -4.3910244065       -1.4387978260  CLST         102          1.0000000000
      1012       102  ACO   C1            3.0449064628       -3.2137163461       -1.7710557057  CLST         102          1.0000000000
      1013       102  ACO   C2            3.6589278160       -2.1954796466       -0.8763567083  CLST         102          1.0000000000
      1014       102  ACO   C3            2.5809179278       -2.7094896474       -3.0938163077  CLST         102          1.0000000000
      1015       102  ACO   H21           3.9576667584       -2.6743715599        0.0773309696  CLST         102          1.0000000000
      1016       102  ACO   H22           4.5531775223       -1.7664418401       -1.3707230959  CLST         102          1.0000000000
      1017       102  ACO   H23           2.9226451755       -1.3932872780       -0.6658209275  CLST         102          1.0000000000
      1018       102  ACO   H31           1.8129434113       -1.9227047783       -2.9490997903  CLST         102          1.0000000000
      1019       102  ACO   H32           3.4425278370       -2.2921085738       -3.6545286650  CLST         102          1.0000000000
      1020       102  ACO   H33           2.1524772880       -3.5467737897       -3.6782128288  CLST         102          1.0000000000
      1021       103  ACO   O1           -3.3394380229        6.5626300323       -1.1949929028  CLST         103          1.0000000000
      1022       103  ACO   C1           -4.4975365756        6.6956606540       -0.8143894340  CLST         103          1.0000000000
      1023       103  ACO   C2           -5.6227410792        5.9860230553       -1.4851347115  CLST         103          1.0000000000
      1024       103  ACO   C3           -4.8541623072        7.5585093666        0.3456573781  CLST         103          1.0000000000
      1025       103  ACO   H21          -5.2100188907        5.2418674261       -2.1964973479  CLST         103          1.0000000000
      1026       103  ACO   H22          -6.2464197209        5.4706796664       -0.7264780944  CLST         103          1.0000000000
      1027       103  ACO   H23          -6.2447954619        6.7157332916       -2.0404071328  CLST         103          1.0000000000
      1028       103  ACO   H31          -5.7707632123        8.1380511647        0.1187306264  CLST         103          1.0000000000
      1029       103  ACO   H32          -5.0310610242        6.9269603590        1.2401406900  CLST         103          1.0000000000
      1030       103  ACO   H33          -4.0265930898        8.2656504157        0.5537283944  CLST         103          1.0000000000
      1031       104  ACO   O1            3.4637413882       -5.9844243225       -8.2588062961  CLST         104          1.0000000000
      1032       104  ACO   C1            2.9036222329       -4.9975905640       -7.7921886122  CLST         104          1.0000000000
      1033       104  ACO   C2            3.4344823861       -3.6224842915       -8.0133705689  CLST         104          1.0000000000
      1034       104  ACO   C3            1.6368385037       -5.1136548087       -7.0134011085  CLST         104          1.0000000000
      1035       104  ACO   H21           4.5387518890       -3.6705335503       -8.1030679004  CLST         104          1.0000000000
      1036       104  ACO   H22           3.0128709499       -3.2054928298       -8.9497809919  CLST         104          1.0000000000
      1037       104  ACO   H23           3.1689873246       -2.9682444813       -7.1574457071  CLST         104          1.0000000000
      1038       104  ACO   H31           1.7294306907       -4.5514863821       -6.0624629801  CLST         104          1.0000000000
      1039       104  ACO   H32           0.7919360470       -4.7110879495       -7.6052959416  CLST         104          1.0000000000
      1040       104  ACO   H33           1.4444485250       -6.1834313833       -6.7950715972  CLST         104          1.0000000000
      1041       105  ACO   O1           10.0899676882       -1.6031085546        7.5583744714  CLST         105          1.0000000000
      1042       105  ACO   C1            9.2347861668       -2.2886457606        7.0071005513  CLST         105          1.0000000000
      1043       105  ACO   C2            8.7596727931       -3.5681542834        7.6016126827  CLST         105          1.0000000000
      1044       105  ACO   C3            8.6209136731       -1.8943876281        5.7069345092  CLST         105          1.0000000000
      1045       105  ACO   H21           9.3188977265       -3.7651542115        8.5389007773  CLST         105          1.0000000000
      1046       105  ACO   H22           7.6775305689       -3.4916801776        7.8315300792  CLST         105          1.0000000000
      1047       105  ACO   H23           8.9320496542       -4.4018345296        6.8899580671  CLST         105          1.0000000000
      1048       105  ACO   H31           8.8253112153       -2.6748168082        4.9452936085  CLST         105          1.0000000000
      1049       105  ACO   H32           7.5252390804       -1.7813724890        5.8351668382  CLST         105          1.0000000000
      1050       105  ACO   H33           9.0551108088       -0.9286643711        5.3750266984  CLST         105          1.0000000000
      1051       106  ACO   O1          -10.3710658300       -8.4271500042        5.2360211565  CLST         106          1.0000000000
      1052       106  ACO   C1          -11.2806139087       -8.3988542780        6.0598087655  CLST         106          1.0000000000
      1053       106  ACO   C2          -11.3274054158       -9.3488664982        7.2079211819  CLST         106          1.0000000000
      1054       106  ACO   C3          -12.4109851808       -7.4326432867        5.9555469908  CLST         106          1.0000000000
      1055       106  ACO   H21         -10.3693027886       -9.9053288625        7.2636842064  CLST         106          1.0000000000
      1056       106  ACO   H22         -11.4771225910       -8.7862109616        8.1519492591  CLST         106          1.0000000000
      1057       106  ACO   H23         -12.1629736411      -10.0636302243        7.0692231287  CLST         106          1.0000000000
      1058       106  ACO   H31         -13.3621765890       -7.9202041060        6.2499136225  CLST         106          1.0000000000
      1059       106  ACO   H32         -12.2252274053       -6.5690546832        6.6259136587  CLST         106          1.0000000000
      1060       106  ACO   H33         -12.4955344192       -7.0675473355        4.9115560427  CLST         106          1.0000000000
      1061       107  ACO   O1           -0.0555881478       -3.2355789643        9.2568789026  CLST         107          1.0000000000
      1062       107  ACO   C1           -1.2734948139       -3.1347466149        9.3637125649  CLST         107          1.0000000000
      1063       107  ACO   C2           -2.0805023636       -2.3587221578        8.3849036361  CLST         107          1.0000000000
      1064       107  ACO   C3           -2.0258382319       -3.7308915908       10.5020942315  CLST         107          1.0000000000
      1065       107  ACO   H21          -1.8024245054       -2.6639885769        7.3567994041  CLST         107          1.0000000000
      1066       107  ACO   H22          -3.1613696708       -2.5455333808        8.5447770248  CLST         107          1.0000000000
      1067       107  ACO   H23          -1.8651366746       -1.2800856589        8.5139454632  CLST         107          1.0000000000
      1068       107  ACO   H31          -2.4847063096       -2.9271659490       11.1119880666  CLST         107          1.0000000000
      1069       107  ACO   H32          -2.8172413670       -4.4033910979       10.1126599440  CLST         107          1.0000000000
      1070       107  ACO   H33          -1.3358519263       -4.3218759971       11.1348006986  CLST         107          1.0000000000
      1071       108  ACO   O1           -4.8202612657        6.8387296710       -6.0716920149  CLST         108          1.0000000000
      1072       108  ACO   C1           -3.7832238200        6.5546838277       -5.4787928269  CLST         108          1.0000000000
      1073       108  ACO   C2           -3.0639039475        7.5531443002       -4.6395191664  CLST         108          1.0000000000
      1074       108  ACO   C3           -3.1806151952        5.1925086335       -5.5700951917  CLST         108          1.0000000000
      1075       108  ACO   H21          -3.7111768002        8.4389821187       -4.4850140522  CLST         108          1.0000000000
      1076       108  ACO   H22          -2.8075445345        7.1114500871       -3.6542252015  CLST         108          1.0000000000
      1077       108  ACO   H23          -2.1343585958        7.8774109325       -5.1490139020  CLST         108          1.0000000000
      1078       108  ACO   H31          -2.1655052398        5.2562429285       -6.0119776387  CLST         108          1.0000000000
      1079       108  ACO   H32          -3.1156129689        4.7399583315       -4.5589755362  CLST         108          1.0000000000
      1080       108  ACO   H33          -3.8155645120        4.5544552089       -6.2170912440  CLST         108          1.0000000000
      1081       109  ACO   O1            4.4514547294        6.6192478319      -11.5165089129  CLST         109          1.0000000000
      1082       109  ACO   C1            5.5454439792        6.5421240886      -10.9669196986  CLST         109          1.0000000000
      1083       109  ACO   C2            5.9425650185        7.4723610613       -9.8707768391  CLST         109          1.0000000000
      1084       109  ACO   C3            6.5540391517        5.5249691800      -11.3740168642  CLST         109          1.0000000000
      1085       109  ACO   H21           5.0438303231        8.0106857385       -9.5045189696  CLST         109          1.0000000000
      1086       109  ACO   H22           6.3948165414        6.9009330304       -9.0342657239  CLST         109          1.0000000000
      1087       109  ACO   H23           6.6785613287        8.2074457350      -10.2504208898  CLST         109          1.0000000000
      1088       109  ACO   H31           7.4877327959        6.0246453906      -11.7040603403  CLST         109          1.0000000000
      1089       109  ACO   H32           6.7735748386        4.8527332137      -10.5198264373  CLST         109          1.0000000000
      1090       109  ACO   H33           6.1438100406        4.9277076255      -12.2137673757  CLST         109          1.0000000000
      1091       110  ACO   O1            4.6127493536        8.6923952685        2.7843389062  CLST         110          1.0000000000
      1092       110  ACO   C1            4.2706343546        9.8700815094        2.7411210263  CLST         110          1.0000000000
      1093       110  ACO   C2            2.8753555174       10.3029914527        3.0377509009  CLST         110          1.0000000000
      1094       110  ACO   C3            5.2386618385       10.9557852790        2.4168594564  CLST         110          1.0000000000
      1095       110  ACO   H21           2.4445363451       10.8002251076        2.1438187551  CLST         110          1.0000000000
      1096       110  ACO   H22           2.2538623182        9.4211961825        3.2946391617  CLST         110          1.0000000000
      1097       110  ACO   H23           2.8718458402       11.0057984851        3.8954572742  CLST         110          1.0000000000
      1098       110  ACO   H31           4.8490515269       11.5574963055        1.5711226940  CLST         110          1.0000000000
      1099       110  ACO   H32           5.3783814088       11.6072265166        3.3031210235  CLST         110          1.0000000000
      1100       110  ACO   H33           6.2110390045       10.5061834534        2.1308810208  CLST         110          1.0000000000
      1101       111  ACO   O1           -7.9466529513        6.8125853408       12.1738847850  CLST         111          1.0000000000
      1102       111  ACO   C1           -6.8919707921        6.7959578872       12.8013360413  CLST         111          1.0000000000
      1103       111  ACO   C2           -6.4850946374        7.9248861337       13.6864417153  CLST         111          1.0000000000
      1104       111  ACO   C3           -5.9643255769        5.6319152042       12.7389371272  CLST         111          1.0000000000
      1105       111  ACO   H21          -7.3019518312        8.6735387524       13.7223413543  CLST         111          1.0000000000
      1106       111  ACO   H22          -6.2847375609        7.5491760030       14.7110656685  CLST         111          1.0000000000
      1107       111  ACO   H23          -5.5684779316        8.4036315350       13.2861858374  CLST         111          1.0000000000
      1108       111  ACO   H31          -4.9267669607        5.9866454542       12.5734034240  CLST         111          1.0000000000
      1109       111  ACO   H32          -6.0121365476        5.0694277771       13.6938819979  CLST         111          1.0000000000
      1110       111  ACO   H33          -6.2679765559        4.9681025105       11.9045468456  CLST         111          1.0000000000
      1111       112  ACO   O1           -8.7715135241        2.3825592852       -2.0986542216  CLST         112          1.0000000000
      1112       112  ACO   C1           -7.7928758337        1.9913258120       -2.7270099353  CLST         112          1.0000000000
      1113       112  ACO   C2           -6.4136313851        2.1290465092       -2.1798526973  CLST         112          1.0000000000
      1114       112  ACO   C3           -7.9199910667        1.3201222136       -4.0526006480  CLST         112          1.0000000000
      1115       112  ACO   H21          -5.7400469300        2.5706599447       -2.9429082082  CLST         112          1.0000000000
      1116       112  ACO   H22          -6.4419227894        2.7891101325       -1.2901338302  CLST         112          1.0000000000
      1117       112  ACO   H23          -6.0314471872        1.1310791529       -1.8823280714  CLST         112          1.0000000000
      1118       112  ACO   H31          -7.2705062211        1.8253008623       -4.7944546746  CLST         112          1.0000000000
      1119       112  ACO   H32          -7.6241155305        0.2553600038       -3.9597309601  CLST         112          1.0000000000
      1120       112  ACO   H33          -8.9746845511        1.3764363974       -4.3941362272  CLST         112          1.0000000000
      1121       113  ACO   O1           13.3774821509        5.1698269250        0.7021988852  CLST         113          1.0000000000
      1122       113  ACO   C1           12.8953491879        4.1956023958        0.1351549318  CLST         113          1.0000000000
      1123       113  ACO   C2           11.8675303536        3.3375790438        0.7869485140  CLST         113          1.0000000000
      1124       113  ACO   C3           13.2923541189        3.8176435215       -1.2512362102  CLST         113          1.0000000000
      1125       113  ACO   H21          11.6077557713        3.7751226280        1.7719158446  CLST         113          1.0000000000
      1126       113  ACO   H22          10.9568114520        3.2987031257        0.1555232115  CLST         113          1.0000000000
      1127       113  ACO   H23          12.2662629548        2.3147922379        0.9367529840  CLST         113          1.0000000000
      1128       113  ACO   H31          13.6724659497        2.7771796920       -1.2635609640  CLST         113          1.0000000000
      1129       113  ACO   H32          12.4148178963        3.9005279043       -1.9245840147  CLST         113          1.0000000000
      1130       113  ACO   H33          14.0875203266        4.5077430646       -1.6027565234  CLST         113          1.0000000000
      1131       114  ACO   O1            0.0243650572       -6.6132948867       -9.3509744445  CLST         114          1.0000000000
      1132       114  ACO   C1            0.3506752979       -6.7795884546      -10.5215667100  CLST         114          1.0000000000
      1133       114  ACO   C2            1.4808253672       -6.0370730359      -11.1444264171  CLST         114          1.0000000000
      1134       114  ACO   C3           -0.3762297746       -7.7255616525      -11.4108331779  CLST         114          1.0000000000
      1135       114  ACO   H21           2.0240327819       -5.4673658861      -10.3657688409  CLST         114          1.0000000000
      1136       114  ACO   H22           2.1770574326       -6.7520247091      -11.6280304433  CLST         114          1.0000000000
      1137       114  ACO   H23           1.0851180649       -5.3297514997      -11.9009184263  CLST         114          1.0000000000
      1138       114  ACO   H31          -0.7820363815       -7.1820593944      -12.2878930016  CLST         114          1.0000000000
      1139       114  ACO   H32           0.3225686440       -8.5111841369      -11.7601599666  CLST         114          1.0000000000
      1140       114  ACO   H33          -1.2054323102       -8.2005062204      -10.8486232726  CLST         114          1.0000000000
      1141       115  ACO   O1            7.9601383128       -7.9220786913       -4.3112890059  CLST         115          1.0000000000
      1142       115  ACO   C1            7.6890611185       -8.9281869228       -4.9585549289  CLST         115          1.0000000000
      1143       115  ACO   C2            6.8464078118      -10.0203388978       -4.3943742122  CLST         115          1.0000000000
      1144       115  ACO   C3            8.1829574182       -9.1212432749       -6.3512447882  CLST         115          1.0000000000
      1145       115  ACO   H21           6.4761924647       -9.7190710225       -3.3936913461  CLST         115          1.0000000000
      1146       115  ACO   H22           5.9798168995      -10.2066804622       -5.0622322343  CLST         115          1.0000000000
      1147       115  ACO   H23           7.4439696856      -10.9496761517       -4.2965233576  CLST         115          1.0000000000
      1148       115  ACO   H31           8.7958309609      -10.0431435179       -6.4081528347  CLST         115          1.0000000000
      1149       115  ACO   H32           7.3192513215       -9.2089258645       -7.0428345059  CLST         115          1.0000000000
      1150       115  ACO   H33           8.7977938921       -8.2468808102       -6.6457334995  CLST         115          1.0000000000
      1151       116  ACO   O1            6.4154200754      -12.5363047381       -2.0048445816  CLST         116          1.0000000000
      1152       116  ACO   C1            5.2841290850      -12.1931101717       -1.6788247852  CLST         116          1.0000000000
      1153       116  ACO   C2            4.2167343118      -11.9491558850       -2.6914302912  CLST         116          1.0000000000
      1154       116  ACO   C3            4.9167819528      -11.9961542071       -0.2480173011  CLST         116          1.0000000000
      1155       116  ACO   H21           4.5852521823      -12.2599418064       -3.6905860557  CLST         116          1.0000000000
      1156       116  ACO   H22           3.3081453987      -12.5332041104       -2.4402091523  CLST         116          1.0000000000
      1157       116  ACO   H23           3.9640483689      -10.8692385185       -2.7191327076  CLST         116          1.0000000000
      1158       116  ACO   H31           4.0430766818      -12.6258225059        0.0134244388  CLST         116          1.0000000000
      1159       116  ACO   H32           5.7787798111      -12.2769749200        0.3911882470  CLST         116          1.0000000000
      1160       116  ACO   H33           4.6699507668      -10.9300756916       -0.0720667325  CLST         116          1.0000000000
      1161       117  ACO   O1           -7.7858250388       -1.2893344713       -1.7544617957  CLST         117          1.0000000000
      1162       117  ACO   C1           -8.7636780380       -0.8758987224       -1.1386589254  CLST         117          1.0000000000
      1163       117  ACO   C2          -10.0712911451       -0.6269404913       -1.8112876064  CLST         117          1.0000000000
      1164       117  ACO   C3           -8.6982373751       -0.5677818127        0.3179098184  CLST         117          1.0000000000
      1165       117  ACO   H21          -9.9572945552       -0.7804055928       -2.9035701091  CLST         117          1.0000000000
      1166       117  ACO   H22         -10.8339198207       -1.3301714350       -1.4218115008  CLST         117          1.0000000000
      1167       117  ACO   H23         -10.3931221478        0.4174552794       -1.6260854677  CLST         117          1.0000000000
      1168       117  ACO   H31          -8.9677100657        0.4940279627        0.4910462232  CLST         117          1.0000000000
      1169       117  ACO   H32          -9.3952642359       -1.2273063001        0.8742635774  CLST         117          1.0000000000
      1170       117  ACO   H33          -7.6665101732       -0.7465694169        0.6807328200  CLST         117          1.0000000000
      1171       118  ACO   O1          -11.8719599667        6.2011256483       -1.7476054445  CLST         118          1.0000000000
      1172       118  ACO   C1          -10.9279511800        5.8886355809       -1.0282311807  CLST         118          1.0000000000
      1173       118  ACO   C2           -9.5462916585        5.7540167671       -1.5653660477  CLST         118          1.0000000000
      1174       118  ACO   C3          -11.0972956336        5.6081674370        0.4239784853  CLST         118          1.0000000000
      1175       118  ACO   H21          -9.5362719279        6.0645192634       -2.6299931415  CLST         118          1.0000000000
      1176       118  ACO   H22          -8.8553535899        6.3979248056       -0.9862498122  CLST         118          1.0000000000
      1177       118  ACO   H23          -9.2170538402        4.6989075361       -1.4872497451  CLST         118          1.0000000000
      1178       118  ACO   H31         -10.7426273434        4.5824364659        0.6505688955  CLST         118          1.0000000000
      1179       118  ACO   H32         -10.5138426711        6.3403691261        1.0176369121  CLST         118          1.0000000000
      1180       118  ACO   H33         -12.1693548315        5.6921296383        0.6943142860  CLST         118          1.0000000000
      1181       119  ACO   O1          -10.6174365177       -6.1570933424      -13.5240045035  CLST         119          1.0000000000
      1182       119  ACO   C1          -10.7562277690       -4.9667345109      -13.2618210773  CLST         119          1.0000000000
      1183       119  ACO   C2          -10.1132711292       -3.9031689980      -14.0840277582  CLST         119          1.0000000000
      1184       119  ACO   C3          -11.5870885423       -4.5047171661      -12.1146613750  CLST         119          1.0000000000
      1185       119  ACO   H21          -9.4065560757       -4.3748268772      -14.7957948483  CLST         119          1.0000000000
      1186       119  ACO   H22         -10.8846108188       -3.3397722346      -14.6459116080  CLST         119          1.0000000000
      1187       119  ACO   H23          -9.5498767394       -3.2076042361      -13.4286372371  CLST         119          1.0000000000
      1188       119  ACO   H31         -10.9325094820       -4.0332970756      -11.3546121344  CLST         119          1.0000000000
      1189       119  ACO   H32         -12.3431908036       -3.7718833526      -12.4621049171  CLST         119          1.0000000000
      1190       119  ACO   H33         -12.1011821782       -5.3738624715      -11.6562396038  CLST         119          1.0000000000
      1191       120  ACO   O1           -7.9997312694      -10.7750173120       -8.1765556280  CLST         120          1.0000000000
      1192       120  ACO   C1           -8.0508989010      -11.7181231758       -7.3936097725  CLST         120          1.0000000000
      1193       120  ACO   C2           -8.6774198005      -13.0182541127       -7.7687188069  CLST         120          1.0000000000
      1194       120  ACO   C3           -7.5023360819      -11.6213880989       -6.0110860522  CLST         120          1.0000000000
      1195       120  ACO   H21          -9.0582664491      -12.9532198892       -8.8085764547  CLST         120          1.0000000000
      1196       120  ACO   H22          -7.9261157295      -13.8324831374       -7.7029851737  CLST         120          1.0000000000
      1197       120  ACO   H23          -9.5215076364      -13.2388199818       -7.0843083719  CLST         120          1.0000000000
      1198       120  ACO   H31          -8.3283057715      -11.6892622334       -5.2737086667  CLST         120          1.0000000000
      1199       120  ACO   H32          -6.7786922073      -12.4429940333       -5.8401138954  CLST         120          1.0000000000
      1200       120  ACO   H33          -6.9867002493      -10.6466994378       -5.8903971784  CLST         120          1.0000000000
      1201       121  ACO   O1            6.1478858378       -1.3636396203       -3.3323904674  CLST         121          1.0000000000
      1202       121  ACO   C1            6.1906169271       -1.1226485583       -4.5357797413  CLST         121          1.0000000000
      1203       121  ACO   C2            6.4771262694        0.2445875613       -5.0530899720  CLST         121          1.0000000000
      1204       121  ACO   C3            5.9549721642       -2.1746880538       -5.5629458112  CLST         121          1.0000000000
      1205       121  ACO   H21           6.5734513724        0.9503592726       -4.2044673479  CLST         121          1.0000000000
      1206       121  ACO   H22           7.4227219111        0.2352931429       -5.6319093421  CLST         121          1.0000000000
      1207       121  ACO   H23           5.6473864585        0.5752576502       -5.7090074613  CLST         121          1.0000000000
      1208       121  ACO   H31           4.9659925356       -2.0148592582       -6.0357286506  CLST         121          1.0000000000
      1209       121  ACO   H32           6.7454361136       -2.1364460713       -6.3398506261  CLST         121          1.0000000000
      1210       121  ACO   H33           5.9672717427       -3.1718292763       -5.0822480084  CLST         121          1.0000000000
      1211       122  ACO   O1            0.3037500996        1.9403177376       10.3195459075  CLST         122          1.0000000000
      1212       122  ACO   C1            0.2930578732        1.0526531363       11.1668766123  CLST         122          1.0000000000
      1213       122  ACO   C2            0.5502773192       -0.3751304150       10.8222318460  CLST         122          1.0000000000
      1214       122  ACO   C3            0.0283248086        1.3462503775       12.6038657287  CLST         122          1.0000000000
      1215       122  ACO   H21           0.5526232223       -0.4980117304        9.7206531306  CLST         122          1.0000000000
      1216       122  ACO   H22           1.5342928254       -0.6868206243       11.2263556045  CLST         122          1.0000000000
      1217       122  ACO   H23          -0.2468696254       -1.0131309744       11.2556198637  CLST         122          1.0000000000
      1218       122  ACO   H31          -0.8929235125        0.8224610857       12.9312732459  CLST         122          1.0000000000
      1219       122  ACO   H32           0.8826198320        1.0001437804       13.2192949506  CLST         122          1.0000000000
      1220       122  ACO   H33          -0.0994372499        2.4388265800       12.7409895870  CLST         122          1.0000000000
      1221       123  ACO   O1           -0.6697698259        8.6672975792       -2.4925763955  CLST         123          1.0000000000
      1222       123  ACO   C1           -1.1369983562        9.4437637528       -1.6649807093  CLST         123          1.0000000000
      1223       123  ACO   C2           -2.5663679030        9.8636808710       -1.6884492602  CLST         123          1.0000000000
      1224       123  ACO   C3           -0.2918246957       10.0569693530       -0.6037590889  CLST         123          1.0000000000
      1225       123  ACO   H21          -3.1779020089        9.0598250715       -2.1440340199  CLST         123          1.0000000000
      1226       123  ACO   H22          -2.9296809067       10.0515898522       -0.6572231446  CLST         123          1.0000000000
      1227       123  ACO   H23          -2.6732689392       10.7851590362       -2.2950253728  CLST         123          1.0000000000
      1228       123  ACO   H31          -0.4018919604       11.1599208193       -0.6276215917  CLST         123          1.0000000000
      1229       123  ACO   H32          -0.6041477954        9.6812838440        0.3909090496  CLST         123          1.0000000000
      1230       123  ACO   H33           0.7719021685        9.7930125776       -0.7776873270  CLST         123          1.0000000000
      1231       124  ACO   O1           -9.7388963046       10.3299510479        9.0021417357  CLST         124          1.0000000000
      1232       124  ACO   C1           -9.0531106949        9.7673050049        9.8499332321  CLST         124          1.0000000000
      1233       124  ACO   C2           -9.4936360356        9.6645097381       11.2692662215  CLST         124          1.0000000000
      1234       124  ACO   C3           -7.7352770845        9.1549577910        9.5182400333  CLST         124          1.0000000000
      1235       124  ACO   H21         -10.4574107534       10.2000804874       11.3904612047  CLST         124          1.0000000000
      1236       124  ACO   H22          -9.6313430655        8.5977632307       11.5404117289  CLST         124          1.0000000000
      1237       124  ACO   H23          -8.7303977878       10.1184430941       11.9331301064  CLST         124          1.0000000000
      1238       124  ACO   H31          -6.9124377716        9.7806303020        9.9205053351  CLST         124          1.0000000000
      1239       124  ACO   H32          -7.6710767293        8.1411334395        9.9621608293  CLST         124          1.0000000000
      1240       124  ACO   H33          -7.6378212166        9.0780770565        8.4166251896  CLST         124          1.0000000000
      1241       125  ACO   O1            7.4430200040       -9.3300363685      -12.0766400775  CLST         125          1.0000000000
      1242       125  ACO   C1            7.7607960197       -8.1893611018      -12.3957579450  CLST         125          1.0000000000
      1243       125  ACO   C2            9.0130183015       -7.8997995731      -13.1509306647  CLST         125          1.0000000000
      1244       125  ACO   C3            6.9235704327       -7.0120179718      -12.0351472559  CLST         125          1.0000000000
      1245       125  ACO   H21           9.5373857627       -8.8532784700      -13.3653165499  CLST         125          1.0000000000
      1246       125  ACO   H22           8.7655161995       -7.4015917200      -14.1105527040  CLST         125          1.0000000000
      1247       125  ACO   H23           9.6702921195       -7.2420372995      -12.5465415106  CLST         125          1.0000000000
      1248       125  ACO   H31           7.4541679057       -6.3978930273      -11.2787170931  CLST         125          1.0000000000
      1249       125  ACO   H32           6.7337300446       -6.4014204782      -12.9399955050  CLST         125          1.0000000000
      1250       125  ACO   H33           5.9581719489       -7.3595800876      -11.6149352322  CLST         125          1.0000000000
      1251       126  ACO   O1           10.6289375048       -5.1630874505       10.3626604056  CLST         126          1.0000000000
      1252       126  ACO   C1           10.9022279933       -6.2027179664        9.7709140302  CLST         126          1.0000000000
      1253       126  ACO   C2           10.8101496513       -7.5327341422       10.4371859622  CLST         126          1.0000000000
      1254       126  ACO   C3           11.3414190683       -6.2019575712        8.3454196139  CLST         126          1.0000000000
      1255       126  ACO   H21          10.4661009260       -7.3958979093       11.4832282946  CLST         126          1.0000000000
      1256       126  ACO   H22          10.0754277525       -8.1692507602        9.9023067622  CLST         126          1.0000000000
      1257       126  ACO   H23          11.8033612805       -8.0252063673       10.4370809035  CLST         126          1.0000000000
      1258       126  ACO   H31          10.5706764800       -6.6954475855        7.7192652166  CLST         126          1.0000000000
      1259       126  ACO   H32          11.4664067614       -5.1557248745        8.0012222867  CLST         126          1.0000000000
      1260       126  ACO   H33          12.3080685548       -6.7371555674        8.2463642714  CLST         126          1.0000000000
      1261       127  ACO   O1            0.7171092249        4.4035850573        6.6683359678  CLST         127          1.0000000000
      1262       127  ACO   C1            1.2281547463        4.6015021753        7.7670657016  CLST         127          1.0000000000
      1263       127  ACO   C2            0.6988522717        5.6315342319        8.7055751221  CLST         127          1.0000000000
      1264       127  ACO   C3            2.4030991978        3.8178228959        8.2441481619  CLST         127          1.0000000000
      1265       127  ACO   H21           1.4970925453        6.3661882921        8.9394597968  CLST         127          1.0000000000
      1266       127  ACO   H22          -0.1511997240        6.1629551384        8.2321759573  CLST         127          1.0000000000
      1267       127  ACO   H23           0.3576841193        5.1455149615        9.6420565952  CLST         127          1.0000000000
      1268       127  ACO   H31           3.2241989600        4.5110473223        8.5163053082  CLST         127          1.0000000000
      1269       127  ACO   H32           2.1166873977        3.2148811066        9.1296916233  CLST         127          1.0000000000
      1270       127  ACO   H33           2.7465828503        3.1413106805        7.4351235572  CLST         127          1.0000000000
      1271       128  ACO   O1           14.3182983109       -2.2668841883        7.8222498229  CLST         128          1.0000000000
      1272       128  ACO   C1           13.4533852813       -1.9040313701        8.6137760996  CLST         128          1.0000000000
      1273       128  ACO   C2           13.0834116946       -0.4698206664        8.7665204602  CLST         128          1.0000000000
      1274       128  ACO   C3           12.7219329061       -2.8718429998        9.4797661002  CLST         128          1.0000000000
      1275       128  ACO   H21          13.8372403556        0.1563407072        8.2484806173  CLST         128          1.0000000000
      1276       128  ACO   H22          12.0880621389       -0.2910918129        8.3104789874  CLST         128          1.0000000000
      1277       128  ACO   H23          13.0544630061       -0.1940703708        9.8393103756  CLST         128          1.0000000000
      1278       128  ACO   H31          12.8671148693       -2.6131453092       10.5476790613  CLST         128          1.0000000000
      1279       128  ACO   H32          11.6386059362       -2.8450053965        9.2411046333  CLST         128          1.0000000000
      1280       128  ACO   H33          13.1071339658       -3.8954140090        9.2974272432  CLST         128          1.0000000000
      1281       129  ACO   O1            6.6456155777        3.5128022018       -5.0991597529  CLST         129          1.0000000000
      1282       129  ACO   C1            6.6067644112        4.3462177824       -4.1998400910  CLST         129          1.0000000000
      1283       129  ACO   C2            6.4809830996        5.8048852103       -4.4749806568  CLST         129          1.0000000000
      1284       129  ACO   C3            6.6947975329        3.9485471310       -2.7680188748  CLST         129          1.0000000000
      1285       129  ACO   H21           5.4729528498        6.1613145494       -4.1781329082  CLST         129          1.0000000000
      1286       129  ACO   H22           7.2463175439        6.3615691523       -3.8983990543  CLST         129          1.0000000000
      1287       129  ACO   H23           6.6323697602        5.9895471505       -5.5582455011  CLST         129          1.0000000000
      1288       129  ACO   H31           7.1071841275        2.9227967214       -2.7043023957  CLST         129          1.0000000000
      1289       129  ACO   H32           7.3634168582        4.6450993709       -2.2223892977  CLST         129          1.0000000000
      1290       129  ACO   H33           5.6834584560        3.9709234687       -2.3143019002  CLST         129          1.0000000000
      1291       130  ACO   O1           -0.7204029179      -10.9188117128      -11.6148452350  CLST         130          1.0000000000
      1292       130  ACO   C1            0.1782146719      -11.7413879364      -11.4684371117  CLST         130          1.0000000000
      1293       130  ACO   C2           -0.1144825451      -13.1918181660      -11.2829255331  CLST         130          1.0000000000
      1294       130  ACO   C3            1.6162182027      -11.3477517111      -11.4357475258  CLST         130          1.0000000000
      1295       130  ACO   H21          -1.2069783991      -13.3619152946      -11.3685436815  CLST         130          1.0000000000
      1296       130  ACO   H22           0.4102080514      -13.7820917145      -12.0607777148  CLST         130          1.0000000000
      1297       130  ACO   H23           0.2288297768      -13.5144518871      -10.2790544723  CLST         130          1.0000000000
      1298       130  ACO   H31           2.0264994978      -11.5079622671      -10.4185942152  CLST         130          1.0000000000
      1299       130  ACO   H32           2.1908776698      -11.9592351793      -12.1605841895  CLST         130          1.0000000000
      1300       130  ACO   H33           1.7195131076      -10.2785701225      -11.7111316164  CLST         130          1.0000000000
      1301       131  ACO   O1            4.0978075172        1.8710534982       -9.7631733079  CLST         131          1.0000000000
      1302       131  ACO   C1            5.0173472479        1.3169835148       -9.1683758680  CLST         131          1.0000000000
      1303       131  ACO   C2            5.1609161958       -0.1682685389       -9.1460855546  CLST         131          1.0000000000
      1304       131  ACO   C3            6.0413276051        2.0976627591       -8.4193451371  CLST         131          1.0000000000
      1305       131  ACO   H21           4.2656613689       -0.6323363575       -9.6082468046  CLST         131          1.0000000000
      1306       131  ACO   H22           6.0651343439       -0.4680210383       -9.7145474978  CLST         131          1.0000000000
      1307       131  ACO   H23           5.2469776834       -0.5216123158       -8.0985524966  CLST         131          1.0000000000
      1308       131  ACO   H31           7.0146344889        1.5687744765       -8.4556011712  CLST         131          1.0000000000
      1309       131  ACO   H32           6.1547190230        3.0961327145       -8.8880220121  CLST         131          1.0000000000
      1310       131  ACO   H33           5.7251918818        2.2263017363       -7.3641749819  CLST         131          1.0000000000
      1311       132  ACO   O1           -7.1545451287        4.8050098775      -12.0037234163  CLST         132          1.0000000000
      1312       132  ACO   C1           -8.0737725238        5.5914862223      -11.7971980971  CLST         132          1.0000000000
      1313       132  ACO   C2           -9.2468636728        5.6890987216      -12.7118243074  CLST         132          1.0000000000
      1314       132  ACO   C3           -8.0709003259        6.5198643733      -10.6307308252  CLST         132          1.0000000000
      1315       132  ACO   H21          -9.2145254022        4.8499754245      -13.4346735843  CLST         132          1.0000000000
      1316       132  ACO   H22         -10.1868735577        5.6289778704      -12.1271076946  CLST         132          1.0000000000
      1317       132  ACO   H23          -9.2169951886        6.6480999593      -13.2676429183  CLST         132          1.0000000000
      1318       132  ACO   H31          -8.2053822007        7.5638450863      -10.9801883633  CLST         132          1.0000000000
      1319       132  ACO   H32          -8.8944234257        6.2452997628       -9.9398709571  CLST         132          1.0000000000
      1320       132  ACO   H33          -7.1020804609        6.4423118856      -10.0982773930  CLST         132          1.0000000000
      1321       133  ACO   O1            5.3073318886        8.3492122802       11.0406661385  CLST         133          1.0000000000
      1322       133  ACO   C1            4.5759752563        7.5015051361       11.5421494881  CLST         133          1.0000000000
      1323       133  ACO   C2            4.2306799787        6.2387703323       10.8303753242  CLST         133          1.0000000000
      1324       133  ACO   C3            3.9774750368        7.6878121360       12.8934289612  CLST         133          1.0000000000
      1325       133  ACO   H21           4.5654103980        6.3141480609        9.7761506147  CLST         133          1.0000000000
      1326       133  ACO   H22           4.7441246111        5.3830179420       11.3145871751  CLST         133          1.0000000000
      1327       133  ACO   H23           3.1332611086        6.0833310973       10.8509217702  CLST         133          1.0000000000
      1328       133  ACO   H31           2.8744918836        7.7379013574       12.8060437175  CLST         133          1.0000000000
      1329       133  ACO   H32           4.2685031413        6.8485884464       13.5592113739  CLST         133          1.0000000000
      1330       133  ACO   H33           4.3378410241        8.6431485636       13.3254080043  CLST         133          1.0000000000
      1331       134  ACO   O1          -12.7414451628       -0.3457212218      -10.1719838545  CLST         134          1.0000000000
      1332       134  ACO   C1          -12.0969491850       -1.2739273258       -9.6945647538  CLST         134          1.0000000000
      1333       134  ACO   C2          -12.7590002366       -2.4387386422       -9.0391618103  CLST         134          1.0000000000
      1334       134  ACO   C3          -10.6064095109       -1.2791876334       -9.7126515605  CLST         134          1.0000000000
      1335       134  ACO   H21         -13.8577713151       -2.3579971021       -9.1689560022  CLST         134          1.0000000000
      1336       134  ACO   H22         -12.4061492653       -3.3847170571       -9.4985640318  CLST         134          1.0000000000
      1337       134  ACO   H23         -12.5151111128       -2.4478475526       -7.9572304663  CLST         134          1.0000000000
      1338       134  ACO   H31         -10.2203348568       -1.4352810747       -8.6845977301  CLST         134          1.0000000000
      1339       134  ACO   H32         -10.2427404718       -2.0932226447      -10.3703673297  CLST         134          1.0000000000
      1340       134  ACO   H33         -10.2375118288       -0.3072055856      -10.0981787693  CLST         134          1.0000000000
      1341       135  ACO   O1            2.4146803284      -13.4725297533       -8.7333361079  CLST         135          1.0000000000
      1342       135  ACO   C1            2.2615361969      -13.0543189876       -7.5899401487  CLST         135          1.0000000000
      1343       135  ACO   C2            0.9422175064      -12.5602004034       -7.1104697931  CLST         135          1.0000000000
      1344       135  ACO   C3            3.3795411005      -13.0016322963       -6.6042969399  CLST         135          1.0000000000
      1345       135  ACO   H21           0.2050352883      -12.6011111654       -7.9376539258  CLST         135          1.0000000000
      1346       135  ACO   H22           0.5839265714      -13.1903876411       -6.2721344865  CLST         135          1.0000000000
      1347       135  ACO   H23           1.0409865453      -11.5151296820       -6.7583359449  CLST         135          1.0000000000
      1348       135  ACO   H31           3.1454672950      -13.6589083952       -5.7422505843  CLST         135          1.0000000000
      1349       135  ACO   H32           4.3160030392      -13.3467947633       -7.0870987777  CLST         135          1.0000000000
      1350       135  ACO   H33           3.5163840624      -11.9595605077       -6.2476214365  CLST         135          1.0000000000
      1351       136  ACO   O1           -2.9903641774       13.4435738305       11.4520177477  CLST         136          1.0000000000
      1352       136  ACO   C1           -3.0497376699       12.2487539934       11.1845034541  CLST         136          1.0000000000
      1353       136  ACO   C2           -2.7576438750       11.2105637191       12.2138582838  CLST         136          1.0000000000
      1354       136  ACO   C3           -3.4295020508       11.7620645749        9.8256087809  CLST         136          1.0000000000
      1355       136  ACO   H21          -2.3953156967       11.7031674306       13.1395844451  CLST         136          1.0000000000
      1356       136  ACO   H22          -3.6808486742       10.6380724380       12.4374528548  CLST         136          1.0000000000
      1357       136  ACO   H23          -1.9813104496       10.5189296810       11.8342109245  CLST         136          1.0000000000
      1358       136  ACO   H31          -2.6277691535       11.1163510180        9.4128428314  CLST         136          1.0000000000
      1359       136  ACO   H32          -4.3699396974       11.1765897745        9.8828826463  CLST         136          1.0000000000
      1360       136  ACO   H33          -3.5783017589       12.6315085077        9.1523670518  CLST         136          1.0000000000
      1361       137  ACO   O1          -10.5455476520        3.9060688737      -10.1127147021  CLST         137          1.0000000000
      1362       137  ACO   C1          -11.2821764513        3.2355213930      -10.8291846617  CLST         137          1.0000000000
      1363       137  ACO   C2          -12.7615058414        3.2609992801      -10.6774031214  CLST         137          1.0000000000
      1364       137  ACO   C3          -10.7515112878        2.3495514938      -11.9033920690  CLST         137          1.0000000000
      1365       137  ACO   H21         -13.0425787743        3.9966920434       -9.8969697525  CLST         137          1.0000000000
      1366       137  ACO   H22         -13.2290142586        3.5485214232      -11.6413207036  CLST         137          1.0000000000
      1367       137  ACO   H23         -13.1241618930        2.2550880047      -10.3819005251  CLST         137          1.0000000000
      1368       137  ACO   H31         -11.0982342315        1.3100286363      -11.7324258895  CLST         137          1.0000000000
      1369       137  ACO   H32         -11.1184946425        2.7041609918      -12.8886186538  CLST         137          1.0000000000
      1370       137  ACO   H33          -9.6427015726        2.3809329644      -11.8930950728  CLST         137          1.0000000000
      1371       138  ACO   O1          -12.4364401875        8.9071405289        2.1874595316  CLST         138          1.0000000000
      1372       138  ACO   C1          -12.4609285889        9.3850815614        1.0574256120  CLST         138          1.0000000000
      1373       138  ACO   C2          -13.1379441372        8.6995490477       -0.0798771352  CLST         138          1.0000000000
      1374       138  ACO   C3          -11.8358766910       10.7015644337        0.7511508876  CLST         138          1.0000000000
      1375       138  ACO   H21         -13.4599968048        7.6859404442        0.2385652178  CLST         138          1.0000000000
      1376       138  ACO   H22         -14.0237669141        9.2834841163       -0.3999616605  CLST         138          1.0000000000
      1377       138  ACO   H23         -12.4328004638        8.6036811377       -0.9311166706  CLST         138          1.0000000000
      1378       138  ACO   H31         -11.0233647497       10.5644350562        0.0084297159  CLST         138          1.0000000000
      1379       138  ACO   H32         -12.5949099298       11.3952817588        0.3372254887  CLST         138          1.0000000000
      1380       138  ACO   H33         -11.4065167640       11.1330787577        1.6782943503  CLST         138          1.0000000000
      1381       139  ACO   O1            9.2219634244       -1.5842446007       -6.1611253609  CLST         139          1.0000000000
      1382       139  ACO   C1            9.7785132323       -1.1309205427       -7.1537809716  CLST         139          1.0000000000
      1383       139  ACO   C2            9.1022273090       -1.0908666784       -8.4805796217  CLST         139          1.0000000000
      1384       139  ACO   C3           11.1628657128       -0.5829268069       -7.0826301164  CLST         139          1.0000000000
      1385       139  ACO   H21           8.1001464110       -1.5604375414       -8.3962614362  CLST         139          1.0000000000
      1386       139  ACO   H22           8.9853195440       -0.0414114615       -8.8183735529  CLST         139          1.0000000000
      1387       139  ACO   H23           9.7017069969       -1.6547292059       -9.2229315025  CLST         139          1.0000000000
      1388       139  ACO   H31          11.8036799907       -1.0820229302       -7.8379773134  CLST         139          1.0000000000
      1389       139  ACO   H32          11.1449124981        0.5103207685       -7.2674793731  CLST         139          1.0000000000
      1390       139  ACO   H33          11.5733670571       -0.7726631110       -6.0695314982  CLST         139          1.0000000000
      1391       140  ACO   O1            8.1729511863       -0.0503387209        0.0768114340  CLST         140          1.0000000000
      1392       140  ACO   C1            6.9687736871        0.1600504058        0.1698949737  CLST         140          1.0000000000
      1393       140  ACO   C2            6.2095445308        0.8377599450       -0.9157401595  CLST         140          1.0000000000
      1394       140  ACO   C3            6.2005665907       -0.2054788308        1.3917668480  CLST         140          1.0000000000
      1395       140  ACO   H21           6.7972614909        0.7801825017       -1.8541138585  CLST         140          1.0000000000
      1396       140  ACO   H22           5.2325602489        0.3385376636       -1.0715158625  CLST         140          1.0000000000
      1397       140  ACO   H23           6.0444855484        1.8991913103       -0.6435721545  CLST         140          1.0000000000
      1398       140  ACO   H31           5.7218069267        0.6987180890        1.8188248348  CLST         140          1.0000000000
      1399       140  ACO   H32           5.4214694122       -0.9529903807        1.1397861241  CLST         140          1.0000000000
      1400       140  ACO   H33           6.8925454348       -0.6443035422        2.1402084007  CLST         140          1.0000000000
      1401       141  ACO   O1           14.8126375976        2.3914431374        7.6341532421  CLST         141          1.0000000000
      1402       141  ACO   C1           14.3175012061        3.2275684297        8.3834952043  CLST         141          1.0000000000
      1403       141  ACO   C2           13.9655418248        4.5928153108        7.9066492888  CLST         141          1.0000000000
      1404       141  ACO   C3           14.0188597924        2.9351745358        9.8140579163  CLST         141          1.0000000000
      1405       141  ACO   H21          14.2303475550        4.6879431418        6.8354181592  CLST         141          1.0000000000
      1406       141  ACO   H22          12.8761434458        4.7570834286        8.0384405489  CLST         141          1.0000000000
      1407       141  ACO   H23          14.5237542225        5.3475705544        8.4971378147  CLST         141          1.0000000000
      1408       141  ACO   H31          14.3961676406        3.7581414103       10.4544782439  CLST         141          1.0000000000
      1409       141  ACO   H32          12.9223777293        2.8409434461        9.9484756387  CLST         141          1.0000000000
      1410       141  ACO   H33          14.5118402854        1.9855500445       10.1043065738  CLST         141          1.0000000000
      1411       142  ACO   O1            1.3240959927       11.0956839877        6.3896637950  CLST         142          1.0000000000
      1412       142  ACO   C1            0.1808146607       10.7974006602        6.7245699570  CLST         142          1.0000000000
      1413       142  ACO   C2           -0.1820837668        9.4225825722        7.1727404218  CLST         142          1.0000000000
      1414       142  ACO   C3           -0.9268136482       11.7953712847        6.7128122577  CLST         142          1.0000000000
      1415       142  ACO   H21           0.7393559235        8.8328685909        7.3505092771  CLST         142          1.0000000000
      1416       142  ACO   H22          -0.7718541755        9.4743476660        8.1106537074  CLST         142          1.0000000000
      1417       142  ACO   H23          -0.7876489267        8.9273941216        6.3862744537  CLST         142          1.0000000000
      1418       142  ACO   H31          -1.1988608385       12.0554020999        7.7558249168  CLST         142          1.0000000000
      1419       142  ACO   H32          -0.5928696076       12.7124543804        6.1879431844  CLST         142          1.0000000000
      1420       142  ACO   H33          -1.8099495700       11.3674415825        6.1951893134  CLST         142          1.0000000000
      1421       143  ACO   O1           -7.9275149467        7.0111274701        1.2040944505  CLST         143          1.0000000000
      1422       143  ACO   C1           -8.0344080721        7.7646619860        2.1667552086  CLST         143          1.0000000000
      1423       143  ACO   C2           -7.2031212673        7.6046539456        3.3935871622  CLST         143          1.0000000000
      1424       143  ACO   C3           -9.0082728639        8.8902252838        2.1627999764  CLST         143          1.0000000000
      1425       143  ACO   H21          -6.6104235132        6.6693783903        3.3189925016  CLST         143          1.0000000000
      1426       143  ACO   H22          -6.5143379597        8.4691423338        3.4890929863  CLST         143          1.0000000000
      1427       143  ACO   H23          -7.8558359887        7.5526812335        4.2888718693  CLST         143          1.0000000000
      1428       143  ACO   H31          -9.8313823214        8.6777227369        2.8745516339  CLST         143          1.0000000000
      1429       143  ACO   H32          -8.5004146666        9.8321172990        2.4526203107  CLST         143          1.0000000000
      1430       143  ACO   H33          -9.4292337338        9.0010182968        1.1437518994  CLST         143          1.0000000000
      1431       144  ACO   O1           -3.3174986493       -5.2517138379        7.5675185136  CLST         144          1.0000000000
      1432       144  ACO   C1           -4.2760491064       -4.7788870438        6.9653191505  CLST         144          1.0000000000
      1433       144  ACO   C2           -5.6671240368       -4.8964083951        7.4855765741  CLST         144          1.0000000000
      1434       144  ACO   C3           -4.1072104834       -4.0271827733        5.6899079369  CLST         144          1.0000000000
      1435       144  ACO   H21          -5.6715122953       -5.5631239461        8.3726431509  CLST         144          1.0000000000
      1436       144  ACO   H22          -6.0504502233       -3.8960853129        7.7737353087  CLST         144          1.0000000000
      1437       144  ACO   H23          -6.3239301953       -5.3289909619        6.7041109379  CLST         144          1.0000000000
      1438       144  ACO   H31          -4.6599068091       -4.5430824603        4.8772121356  CLST         144          1.0000000000
      1439       144  ACO   H32          -4.4882166098       -2.9932805621        5.8080609709  CLST         144          1.0000000000
      1440       144  ACO   H33          -3.0313321002       -3.9918622067        5.4280716813  CLST         144          1.0000000000
      1441       145  ACO   O1            4.0478237978       -4.7950655533       -4.9748400000  CLST         145          1.0000000000
      1442       145  ACO   C1            4.5729303458       -5.7502354134       -4.4157539479  CLST         145          1.0000000000
      1443       145  ACO   C2            5.4808953257       -5.5563738075       -3.2537085929  CLST         145          1.0000000000
      1444       145  ACO   C3            4.3172923150       -7.1530656276       -4.8493599141  CLST         145          1.0000000000
      1445       145  ACO   H21           5.6853752372       -4.4730922123       -3.1312964054  CLST         145          1.0000000000
      1446       145  ACO   H22           4.9811810562       -5.9318180814       -2.3384018304  CLST         145          1.0000000000
      1447       145  ACO   H23           6.4336811375       -6.0989145579       -3.4190401603  CLST         145          1.0000000000
      1448       145  ACO   H31           5.2429520312       -7.5879674793       -5.2736873740  CLST         145          1.0000000000
      1449       145  ACO   H32           3.9778598490       -7.7615884581       -3.9857874235  CLST         145          1.0000000000
      1450       145  ACO   H33           3.5331182893       -7.1563673824       -5.6334831012  CLST         145          1.0000000000
      1451       146  ACO   O1          -13.9456006695        0.9087668702        2.0312553454  CLST         146          1.0000000000
      1452       146  ACO   C1          -13.0307855602        0.5967019805        1.2768082235  CLST         146          1.0000000000
      1453       146  ACO   C2          -12.1567984511        1.6278298543        0.6482665377  CLST         146          1.0000000000
      1454       146  ACO   C3          -12.7471533881       -0.8305965319        0.9456761552  CLST         146          1.0000000000
      1455       146  ACO   H21         -12.4963785581        2.6348407615        0.9708932932  CLST         146          1.0000000000
      1456       146  ACO   H22         -11.1087051610        1.4857912555        0.9822707382  CLST         146          1.0000000000
      1457       146  ACO   H23         -12.2101964651        1.5570433179       -0.4563406173  CLST         146          1.0000000000
      1458       146  ACO   H31         -12.8349502260       -0.9949041703       -0.1473685971  CLST         146          1.0000000000
      1459       146  ACO   H32         -11.7262720970       -1.1049422202        1.2794968040  CLST         146          1.0000000000
      1460       146  ACO   H33         -13.4842671925       -1.4777923806        1.4646511858  CLST         146          1.0000000000
      1461       147  ACO   O1            3.4314759697       10.5599286742       -0.4642733804  CLST         147          1.0000000000
      1462       147  ACO   C1            3.6248972023       11.5770534175       -1.1216284759  CLST         147          1.0000000000
      1463       147  ACO   C2            4.9222941964       11.8253277074       -1.8120759348  CLST         147          1.0000000000
      1464       147  ACO   C3            2.5801195236       12.6298631482       -1.2713032607  CLST         147          1.0000000000
      1465       147  ACO   H21           5.6145058370       10.9862143650       -1.5953047954  CLST         147          1.0000000000
      1466       147  ACO   H22           4.7567143711       11.8864831772       -2.9072881864  CLST         147          1.0000000000
      1467       147  ACO   H23           5.3719027312       12.7722881797       -1.4505387037  CLST         147          1.0000000000
      1468       147  ACO   H31           2.8620161501       13.5259817918       -0.6848793913  CLST         147          1.0000000000
      1469       147  ACO   H32           2.4636063080       12.9007666222       -2.3407030167  CLST         147          1.0000000000
      1470       147  ACO   H33           1.6160796879       12.2436861604       -0.8848502115  CLST         147          1.0000000000
      1471       148  ACO   O1           10.5041266746        1.1964216127        4.9584044342  CLST         148          1.0000000000
      1472       148  ACO   C1           11.6889676922        1.5107170614        4.9913441123  CLST         148          1.0000000000
      1473       148  ACO   C2           12.7533109489        0.5243484068        5.3246876547  CLST         148          1.0000000000
      1474       148  ACO   C3           12.1455414112        2.8876143694        4.6577434745  CLST         148          1.0000000000
      1475       148  ACO   H21          12.2836084095       -0.4076020132        5.7020329129  CLST         148          1.0000000000
      1476       148  ACO   H22          13.3443527731        0.2972788392        4.4149020799  CLST         148          1.0000000000
      1477       148  ACO   H23          13.4206223039        0.9444260005        6.1032020380  CLST         148          1.0000000000
      1478       148  ACO   H31          12.6833925537        3.3171404695        5.5260036232  CLST         148          1.0000000000
      1479       148  ACO   H32          12.8196707761        2.8513737046        3.7775860916  CLST         148          1.0000000000
      1480       148  ACO   H33          11.2654420963        3.5191708751        4.4187414646  CLST         148          1.0000000000
      1481       149  ACO   O1           -6.4060139733        4.0278544095        3.9626064683  CLST         149          1.0000000000
      1482       149  ACO   C1           -7.0043873635        3.3453271635        3.1380730869  CLST         149          1.0000000000
      1483       149  ACO   C2           -7.4023125905        1.9388804533        3.4310365582  CLST         149          1.0000000000
      1484       149  ACO   C3           -7.3621953049        3.8740244590        1.7907829575  CLST         149          1.0000000000
      1485       149  ACO   H21          -7.1511296749        1.7003449766        4.4849432985  CLST         149          1.0000000000
      1486       149  ACO   H22          -8.4965867682        1.8231352649        3.2924772762  CLST         149          1.0000000000
      1487       149  ACO   H23          -6.8659382617        1.2450218739        2.7540847326  CLST         149          1.0000000000
      1488       149  ACO   H31          -8.4238060218        4.1932550135        1.7846036455  CLST         149          1.0000000000
      1489       149  ACO   H32          -6.7227084377        4.7521624219        1.5660434049  CLST         149          1.0000000000
      1490       149  ACO   H33          -7.2086765524        3.0939350872        1.0191400188  CLST         149          1.0000000000
      1491       150  ACO   O1           -7.1274458483       -2.9317986847       12.5259844154  CLST         150          1.0000000000
      1492       150  ACO   C1           -6.9692534037       -3.6325248538       11.5311408768  CLST         150          1.0000000000
      1493       150  ACO   C2           -8.0823407881       -3.9069208662       10.5783301813  CLST         150          1.0000000000
      1494       150  ACO   C3           -5.6515307439       -4.2500674098       11.2132591200  CLST         150          1.0000000000
      1495       150  ACO   H21          -8.9751391109       -3.3249190756       10.8824783820  CLST         150          1.0000000000
      1496       150  ACO   H22          -7.7836055804       -3.6065160645        9.5529542791  CLST         150          1.0000000000
      1497       150  ACO   H23          -8.3231964059       -4.9881992295       10.5910808713  CLST         150          1.0000000000
      1498       150  ACO   H31          -5.7392587803       -5.3557986971       11.2283025632  CLST         150          1.0000000000
      1499       150  ACO   H32          -5.3128519346       -3.9187511136       10.2114714145  CLST         150          1.0000000000
      1500       150  ACO   H33          -4.9064233456       -3.9364768564       11.9703997925  CLST         150          1.0000000000
      1501       151  ACO   O1          -11.7682756864      -10.2325073198       -9.7425517779  CLST         151          1.0000000000
      1502       151  ACO   C1          -11.1843100791       -9.5885756758      -10.6073760575  CLST         151          1.0000000000
      1503       151  ACO   C2           -9.8123682511       -9.9540909758      -11.0628764053  CLST         151          1.0000000000
      1504       151  ACO   C3          -11.8105405230       -8.4017219061      -11.2556381329  CLST         151          1.0000000000
      1505       151  ACO   H21          -9.4099140243      -10.7509032878      -10.4034990686  CLST         151          1.0000000000
      1506       151  ACO   H22          -9.8529614592      -10.3269591705      -12.1063645456  CLST         151          1.0000000000
      1507       151  ACO   H23          -9.1477924153       -9.0687371528      -11.0123604973  CLST         151          1.0000000000
      1508       151  ACO   H31         -11.2918547602       -7.4793708000      -10.9259236158  CLST         151          1.0000000000
      1509       151  ACO   H32         -11.7378666569       -8.4873979147      -12.3594973060  CLST         151          1.0000000000
      1510       151  ACO   H33         -12.8772547773       -8.3434328216      -10.9584178243  CLST         151          1.0000000000
      1511       152  ACO   O1           -5.3113261045       -6.5505242321       -1.1642443663  CLST         152          1.0000000000
      1512       152  ACO   C1           -5.2402431203       -5.4690047281       -1.7389260293  CLST         152          1.0000000000
      1513       152  ACO   C2           -4.8122628815       -5.3712137475       -3.1632654059  CLST         152          1.0000000000
      1514       152  ACO   C3           -5.5851000649       -4.1892343013       -1.0557268920  CLST         152          1.0000000000
      1515       152  ACO   H21          -4.3501511423       -6.3301620960       -3.4736287144  CLST         152          1.0000000000
      1516       152  ACO   H22          -5.6926922435       -5.1625299029       -3.8033653127  CLST         152          1.0000000000
      1517       152  ACO   H23          -4.0678386546       -4.5581669561       -3.2771665079  CLST         152          1.0000000000
      1518       152  ACO   H31          -4.7174835112       -3.4993171113       -1.0908784853  CLST         152          1.0000000000
      1519       152  ACO   H32          -6.4526541866       -3.7138515356       -1.5575023613  CLST         152          1.0000000000
      1520       152  ACO   H33          -5.8388589559       -4.3963296920        0.0043841365  CLST         152          1.0000000000
      1521       153  ACO   O1            4.1966385226        5.9735269607       -1.7402977080  CLST         153          1.0000000000
      1522       153  ACO   C1            4.9469732678        6.5702049016       -0.9752955704  CLST         153          1.0000000000
      1523       153  ACO   C2            5.3565225995        5.9800285984        0.3282711437  CLST         153          1.0000000000
      1524       153  ACO   C3            5.5086704421        7.9107550052       -1.3002011120  CLST         153          1.0000000000
      1525       153  ACO   H21           4.7238127743        5.0936378902        0.5396572524  CLST         153          1.0000000000
      1526       153  ACO   H22           6.4186547310        5.6689591397        0.2829751763  CLST         153          1.0000000000
      1527       153  ACO   H23           5.2188429143        6.7276305781        1.1370006528  CLST         153          1.0000000000
      1528       153  ACO   H31           5.1552698422        8.6532661334       -0.5554030409  CLST         153          1.0000000000
      1529       153  ACO   H32           6.6168738361        7.8708747338       -1.2898520445  CLST         153          1.0000000000
      1530       153  ACO   H33           5.1662297062        8.2155893481       -2.3099784831  CLST         153          1.0000000000
      1531       154  ACO   O1            3.0038512048       -8.7801902813       -1.6981479745  CLST         154          1.0000000000
      1532       154  ACO   C1            2.5328062896       -8.9311641899       -0.5759744530  CLST         154          1.0000000000
      1533       154  ACO   C2            2.7382994762       -7.9275819108        0.5050814610  CLST         154          1.0000000000
      1534       154  ACO   C3            1.7445339494      -10.1425145738       -0.2118924987  CLST         154          1.0000000000
      1535       154  ACO   H21           3.0989610534       -6.9782735712        0.0573166707  CLST         154          1.0000000000
      1536       154  ACO   H22           1.7808221532       -7.7448229818        1.0346594825  CLST         154          1.0000000000
      1537       154  ACO   H23           3.4941169075       -8.3025900897        1.2248467304  CLST         154          1.0000000000
      1538       154  ACO   H31           2.2859853577      -10.7252904959        0.5594987446  CLST         154          1.0000000000
      1539       154  ACO   H32           0.7539580195       -9.8399382936        0.1858795238  CLST         154          1.0000000000
      1540       154  ACO   H33           1.6047095043      -10.7745418080       -1.1129491055  CLST         154          1.0000000000
      1541       155  ACO   O1            8.7408357719       -8.5815333445        7.6359189479  CLST         155          1.0000000000
      1542       155  ACO   C1            9.4553269175       -9.4742597424        7.1940730411  CLST         155          1.0000000000
      1543       155  ACO   C2           10.3991974483       -9.2325572095        6.0637596998  CLST         155          1.0000000000
      1544       155  ACO   C3            9.4228836739      -10.8531770066        7.7599249889  CLST         155          1.0000000000
      1545       155  ACO   H21          10.3010338436       -8.1787097403        5.7295520444  CLST         155          1.0000000000
      1546       155  ACO   H22          11.4410103990       -9.4136836955        6.3958540998  CLST         155          1.0000000000
      1547       155  ACO   H23          10.1561327941       -9.9038660036        5.2142674568  CLST         155          1.0000000000
      1548       155  ACO   H31           9.0291887982      -11.5600217717        7.0007835560  CLST         155          1.0000000000
      1549       155  ACO   H32          10.4424997691      -11.1611839118        8.0672565267  CLST         155          1.0000000000
      1550       155  ACO   H33           8.7547763720      -10.8650740587        8.6454742113  CLST         155          1.0000000000
      1551       156  ACO   O1            3.2562188085       -0.2641796922       -6.4674143074  CLST         156          1.0000000000
      1552       156  ACO   C1            2.7066789471        0.7031050947       -5.9531908296  CLST         156          1.0000000000
      1553       156  ACO   C2            2.2279685589        1.8568006497       -6.7626562030  CLST         156          1.0000000000
      1554       156  ACO   C3            2.4776068168        0.7888434099       -4.4853837935  CLST         156          1.0000000000
      1555       156  ACO   H21           2.4410619001        1.6699896205       -7.8342783967  CLST         156          1.0000000000
      1556       156  ACO   H22           1.1355532423        1.9867270598       -6.6232019341  CLST         156          1.0000000000
      1557       156  ACO   H23           2.7498504893        2.7793421865       -6.4428729605  CLST         156          1.0000000000
      1558       156  ACO   H31           2.6596336289        1.8228077739       -4.1284433829  CLST         156          1.0000000000
      1559       156  ACO   H32           1.4328362254        0.4979289069       -4.2530476028  CLST         156          1.0000000000
      1560       156  ACO   H33           3.1701658670        0.0971757566       -3.9638087529  CLST         156          1.0000000000
      1561       157  ACO   O1           -5.5692092244        8.9301415753      -11.0079766341  CLST         157          1.0000000000
      1562       157  ACO   C1           -4.7882182415        9.8068436460      -11.3669625351  CLST         157          1.0000000000
      1563       157  ACO   C2           -4.9571872475       11.2286817663      -10.9484147264  CLST         157          1.0000000000
      1564       157  ACO   C3           -3.6212457230        9.5127616292      -12.2465384671  CLST         157          1.0000000000
      1565       157  ACO   H21          -5.8358327025       11.3131817411      -10.2773242975  CLST         157          1.0000000000
      1566       157  ACO   H22          -4.0489394217       11.5682464267      -10.4095351225  CLST         157          1.0000000000
      1567       157  ACO   H23          -5.1139185185       11.8665594369      -11.8418807640  CLST         157          1.0000000000
      1568       157  ACO   H31          -3.7240827687       10.0594827429      -13.2040777885  CLST         157          1.0000000000
      1569       157  ACO   H32          -2.6828168978        9.8230501288      -11.7414532472  CLST         157          1.0000000000
      1570       157  ACO   H33          -3.5740317430        8.4234618347      -12.4515147689  CLST         157          1.0000000000
      1571       158  ACO   O1           -9.3717127557        3.8476344454        8.6657367770  CLST         158          1.0000000000
      1572       158  ACO   C1           -8.4354883771        4.4289475860        8.1267944354  CLST         158          1.0000000000
      1573       158  ACO   C2           -7.5608699151        5.3658197951        8.8858539918  CLST         158          1.0000000000
      1574       158  ACO   C3           -8.1002166353        4.2154085890        6.6903911242  CLST         158          1.0000000000
      1575       158  ACO   H21          -8.0047707883        5.5554309085        9.8848745855  CLST         158          1.0000000000
      1576       158  ACO   H22          -6.5544501814        4.9182145447        9.0093306236  CLST         158          1.0000000000
      1577       158  ACO   H23          -7.4756750411        6.3242934728        8.3351214287  CLST         158          1.0000000000
      1578       158  ACO   H31          -8.1965642847        5.1680166876        6.1317451903  CLST         158          1.0000000000
      1579       158  ACO   H32          -7.0589686636        3.8478771954        6.5960728475  CLST         158          1.0000000000
      1580       158  ACO   H33          -8.7923238761        3.4633713227        6.2570827397  CLST         158          1.0000000000
      1581       159  ACO   O1           10.1483111385        7.8142119692        7.6487064321  CLST         159          1.0000000000
      1582       159  ACO   C1           11.0344545295        7.3354392916        6.9495266506  CLST         159          1.0000000000
      1583       159  ACO   C2           12.3867629934        7.9596233717        6.8793615495  CLST         159          1.0000000000
      1584       159  ACO   C3           10.8125428784        6.1025588581        6.1389599840  CLST         159          1.0000000000
      1585       159  ACO   H21          12.3426856252        8.9685281372        7.3380785573  CLST         159          1.0000000000
      1586       159  ACO   H22          13.1140344924        7.3398746522        7.4412244560  CLST         159          1.0000000000
      1587       159  ACO   H23          12.7045548099        8.0516434793        5.8218340934  CLST         159          1.0000000000
      1588       159  ACO   H31          10.3679774678        6.3766054310        5.1595689002  CLST         159          1.0000000000
      1589       159  ACO   H32          11.7733213870        5.5768180721        5.9743490198  CLST         159          1.0000000000
      1590       159  ACO   H33          10.1153611396        5.4292121251        6.6786941130  CLST         159          1.0000000000
      1591       160  ACO   O1            6.8648188451        3.8780783843        9.4171249512  CLST         160          1.0000000000
      1592       160  ACO   C1            6.7068953383        4.6125164238        8.4490973457  CLST         160          1.0000000000
      1593       160  ACO   C2            5.9267582026        4.1693910900        7.2610405383  CLST         160          1.0000000000
      1594       160  ACO   C3            7.2897924976        5.9811698712        8.4045896058  CLST         160          1.0000000000
      1595       160  ACO   H21           5.4708275969        3.1794584638        7.4650141124  CLST         160          1.0000000000
      1596       160  ACO   H22           5.1301895176        4.9082368875        7.0419674152  CLST         160          1.0000000000
      1597       160  ACO   H23           6.6004957470        4.0951639704        6.3856798512  CLST         160          1.0000000000
      1598       160  ACO   H31           7.9606333825        6.0752942474        7.5264149211  CLST         160          1.0000000000
      1599       160  ACO   H32           6.4769392879        6.7325002027        8.3273847587  CLST         160          1.0000000000
      1600       160  ACO   H33           7.8735909652        6.1617367313        9.3291625960  CLST         160          1.0000000000
      1601       161  ACO   O1           10.9679779818       -3.2475437339       -2.7139958425  CLST         161          1.0000000000
      1602       161  ACO   C1            9.8654467448       -2.7686697505       -2.9554572921  CLST         161          1.0000000000
      1603       161  ACO   C2            8.7011825946       -3.6213704160       -3.3206947795  CLST         161          1.0000000000
      1604       161  ACO   C3            9.6160321443       -1.3019385170       -2.8893619925  CLST         161          1.0000000000
      1605       161  ACO   H21           8.9509641599       -4.6897338458       -3.1605749505  CLST         161          1.0000000000
      1606       161  ACO   H22           7.8282813422       -3.3437444117       -2.6983199218  CLST         161          1.0000000000
      1607       161  ACO   H23           8.4503803261       -3.4539164942       -4.3868990727  CLST         161          1.0000000000
      1608       161  ACO   H31           9.1287008809       -0.9629310480       -3.8248993148  CLST         161          1.0000000000
      1609       161  ACO   H32           8.9512838921       -1.0801092430       -2.0302168579  CLST         161          1.0000000000
      1610       161  ACO   H33          10.5819905750       -0.7731819090       -2.7633148138  CLST         161          1.0000000000
      1611       162  ACO   O1           -1.3839685380        0.9878364317        1.5662904733  CLST         162          1.0000000000
      1612       162  ACO   C1           -1.7592688440        1.2871991579        2.6939831030  CLST         162          1.0000000000
      1613       162  ACO   C2           -3.0820036664        0.8330744505        3.2094839614  CLST         162          1.0000000000
      1614       162  ACO   C3           -0.9274988365        2.1458988557        3.5845098135  CLST         162          1.0000000000
      1615       162  ACO   H21          -3.5275596669        0.1209691408        2.4854081378  CLST         162          1.0000000000
      1616       162  ACO   H22          -2.9526580440        0.3290709761        4.1884222305  CLST         162          1.0000000000
      1617       162  ACO   H23          -3.7541893953        1.7081990810        3.3217759389  CLST         162          1.0000000000
      1618       162  ACO   H31          -1.5427027066        2.5522500399        4.4128592861  CLST         162          1.0000000000
      1619       162  ACO   H32          -0.0915481489        1.5474394160        3.9973862006  CLST         162          1.0000000000
      1620       162  ACO   H33          -0.5100211938        2.9861171066        2.9939028173  CLST         162          1.0000000000
      1621       163  ACO   O1          -10.9510068372      -11.5178414547        1.2772230072  CLST         163          1.0000000000
      1622       163  ACO   C1          -10.8017125536      -10.7009024491        2.1788919546  CLST         163          1.0000000000
      1623       163  ACO   C2           -9.6770387748       -9.7227097418        2.1782837339  CLST         163          1.0000000000
      1624       163  ACO   C3          -11.7406360284      -10.6446331963        3.3334786406  CLST         163          1.0000000000
      1625       163  ACO   H21          -9.1328246784       -9.7931507324        1.2141653110  CLST         163          1.0000000000
      1626       163  ACO   H22         -10.0733576788       -8.6927771028        2.2921073659  CLST         163          1.0000000000
      1627       163  ACO   H23          -8.9828941495       -9.9442851285        3.0138806067  CLST         163          1.0000000000
      1628       163  ACO   H31         -11.1932362744      -10.8746432073        4.2693753001  CLST         163          1.0000000000
      1629       163  ACO   H32         -12.1815127460       -9.6293914125        3.4045024150  CLST         163          1.0000000000
      1630       163  ACO   H33         -12.5485915420      -11.3893079702        3.1837516511  CLST         163          1.0000000000
      1631       164  ACO   O1           -8.9290685753       -4.7637188728        6.4500294691  CLST         164          1.0000000000
      1632       164  ACO   C1           -9.3214946114       -4.9071604855        5.2968257432  CLST         164          1.0000000000
      1633       164  ACO   C2           -8.4896298206       -5.5816758663        4.2595926145  CLST         164          1.0000000000
      1634       164  ACO   C3          -10.6451846536       -4.3896441667        4.8507422525  CLST         164          1.0000000000
      1635       164  ACO   H21          -7.4937870115       -5.8195582368        4.6853499336  CLST         164          1.0000000000
      1636       164  ACO   H22          -8.9844552126       -6.5202359142        3.9351158814  CLST         164          1.0000000000
      1637       164  ACO   H23          -8.3568020902       -4.9089269453        3.3889561654  CLST         164          1.0000000000
      1638       164  ACO   H31         -10.4967238217       -3.5551176588        4.1361625828  CLST         164          1.0000000000
      1639       164  ACO   H32         -11.2220265575       -5.1985144233        4.3586792463  CLST         164          1.0000000000
      1640       164  ACO   H33         -11.2122851784       -4.0232294173        5.7311238209  CLST         164          1.0000000000
      1641       165  ACO   O1            9.1974076838       -5.7278318684        4.7316497312  CLST         165          1.0000000000
      1642       165  ACO   C1            9.3974554432       -6.2234555967        3.6272900918  CLST         165          1.0000000000
      1643       165  ACO   C2           10.7432856274       -6.1989824272        2.9894003495  CLST         165          1.0000000000
      1644       165  ACO   C3            8.3105213943       -6.8812577305        2.8484320825  CLST         165          1.0000000000
      1645       165  ACO   H21          11.5137828609       -6.4698215574        3.7395740674  CLST         165          1.0000000000
      1646       165  ACO   H22          10.7754736319       -6.9204123589        2.1481687337  CLST         165          1.0000000000
      1647       165  ACO   H23          10.9529263507       -5.1783792864        2.6088473874  CLST         165          1.0000000000
      1648       165  ACO   H31           8.2314507511       -6.4148152755        1.8459122111  CLST         165          1.0000000000
      1649       165  ACO   H32           8.5382688622       -7.9604812715        2.7301959116  CLST         165          1.0000000000
      1650       165  ACO   H33           7.3477943112       -6.7625988030        3.3848111213  CLST         165          1.0000000000
      1651       166  ACO   O1           -4.9325767112       -9.1003580751       -6.5833219502  CLST         166          1.0000000000
      1652       166  ACO   C1           -5.6460625195       -8.2692441051       -7.1363676719  CLST         166          1.0000000000
      1653       166  ACO   C2           -6.3127068142       -7.1761494439       -6.3729375927  CLST         166          1.0000000000
      1654       166  ACO   C3           -5.8969348099       -8.3006097653       -8.6052798873  CLST         166          1.0000000000
      1655       166  ACO   H21          -6.0525773586       -7.2635593391       -5.2986286499  CLST         166          1.0000000000
      1656       166  ACO   H22          -5.9732039886       -6.1899351138       -6.7503633719  CLST         166          1.0000000000
      1657       166  ACO   H23          -7.4123919193       -7.2515980610       -6.4851194020  CLST         166          1.0000000000
      1658       166  ACO   H31          -6.9730294764       -8.4887146123       -8.7936487794  CLST         166          1.0000000000
      1659       166  ACO   H32          -5.5961525569       -7.3341311275       -9.0588896895  CLST         166          1.0000000000
      1660       166  ACO   H33          -5.3054735908       -9.1187482753       -9.0625850516  CLST         166          1.0000000000
      1661       167  ACO   O1            0.5797173672      -11.2651477481       -4.0127544175  CLST         167          1.0000000000
      1662       167  ACO   C1           -0.1468883072      -10.2772194073       -3.9967062019  CLST         167          1.0000000000
      1663       167  ACO   C2           -0.5052936550       -9.5440634704       -5.2470796451  CLST         167          1.0000000000
      1664       167  ACO   C3           -0.6836022442       -9.7373787274       -2.7146475051  CLST         167          1.0000000000
      1665       167  ACO   H21          -0.7231824356      -10.2754618480       -6.0518255195  CLST         167          1.0000000000
      1666       167  ACO   H22          -1.4023985346       -8.9133437240       -5.0817464271  CLST         167          1.0000000000
      1667       167  ACO   H23           0.3416621672       -8.8990095311       -5.5564481931  CLST         167          1.0000000000
      1668       167  ACO   H31           0.0104214596       -8.9702577041       -2.3183192024  CLST         167          1.0000000000
      1669       167  ACO   H32          -1.6776394178       -9.2763027152       -2.8750414088  CLST         167          1.0000000000
      1670       167  ACO   H33          -0.7756379943      -10.5629578473       -1.9807118989  CLST         167          1.0000000000
      1671       168  ACO   O1            0.4417123199       12.5983897420        1.2990566832  CLST         168          1.0000000000
      1672       168  ACO   C1            0.1031217044       12.5717582559        2.4772602706  CLST         168          1.0000000000
      1673       168  ACO   C2            0.8512067478       13.3283243508        3.5207988078  CLST         168          1.0000000000
      1674       168  ACO   C3           -1.0687612444       11.7751025838        2.9380970735  CLST         168          1.0000000000
      1675       168  ACO   H21           1.7577105845       13.7743235099        3.0625498070  CLST         168          1.0000000000
      1676       168  ACO   H22           0.2175629657       14.1426343770        3.9247139549  CLST         168          1.0000000000
      1677       168  ACO   H23           1.1520911914       12.6457011181        4.3409682124  CLST         168          1.0000000000
      1678       168  ACO   H31          -0.7244887558       10.9337461213        3.5748701172  CLST         168          1.0000000000
      1679       168  ACO   H32          -1.7575849796       12.4230664214        3.5150047685  CLST         168          1.0000000000
      1680       168  ACO   H33          -1.6065119991       11.3682881170        2.0573257878  CLST         168          1.0000000000
      1681       169  ACO   O1            6.0725227269       -9.1208164394        1.2809687930  CLST         169          1.0000000000
      1682       169  ACO   C1            6.7173636789       -8.8711009053        0.2660811544  CLST         169          1.0000000000
      1683       169  ACO   C2            6.2787592903       -7.8371155813       -0.7092293519  CLST         169          1.0000000000
      1684       169  ACO   C3            7.9706133909       -9.5992852252       -0.0805333761  CLST         169          1.0000000000
      1685       169  ACO   H21           5.5678264342       -7.1441519389       -0.2159024884  CLST         169          1.0000000000
      1686       169  ACO   H22           7.1581773587       -7.2652078491       -1.0713985162  CLST         169          1.0000000000
      1687       169  ACO   H23           5.7736284304       -8.3229382788       -1.5691693024  CLST         169          1.0000000000
      1688       169  ACO   H31           7.8370530071      -10.1409629705       -1.0395711405  CLST         169          1.0000000000
      1689       169  ACO   H32           8.8050939544       -8.8742381443       -0.1759752294  CLST         169          1.0000000000
      1690       169  ACO   H33           8.2115490897      -10.3257537884        0.7206652183  CLST         169          1.0000000000
      1691       170  ACO   O1            2.0566124886      -12.3734023779       13.3433660525  CLST         170          1.0000000000
      1692       170  ACO   C1            1.8279186433      -13.4471322324       12.7993833117  CLST         170          1.0000000000
      1693       170  ACO   C2            0.4842943330      -14.0869646566       12.8848244764  CLST         170          1.0000000000
      1694       170  ACO   C3            2.8852266346      -14.1767525925       12.0423382569  CLST         170          1.0000000000
      1695       170  ACO   H21          -0.2182333867      -13.3929588367       13.3921618694  CLST         170          1.0000000000
      1696       170  ACO   H22           0.1045340200      -14.3087884303       11.8667130430  CLST         170          1.0000000000
      1697       170  ACO   H23           0.5578154079      -15.0259727995       13.4678514949  CLST         170          1.0000000000
      1698       170  ACO   H31           3.1148287899      -15.1374032611       12.5462191141  CLST         170          1.0000000000
      1699       170  ACO   H32           2.5420416915      -14.3684151683       11.0046931418  CLST         170          1.0000000000
      1700       170  ACO   H33           3.8031021353      -13.5536918475       12.0094699959  CLST         170          1.0000000000
      1701       171  ACO   O1            6.4055582607        4.6229545598       13.2554464537  CLST         171          1.0000000000
      1702       171  ACO   C1            7.4700266930        4.9809789077       12.7602938523  CLST         171          1.0000000000
      1703       171  ACO   C2            7.8385027389        6.4196841379       12.6520452194  CLST         171          1.0000000000
      1704       171  ACO   C3            8.4714461575        4.0018132149       12.2506807881  CLST         171          1.0000000000
      1705       171  ACO   H21           7.0285864938        7.0366330239       13.0875706725  CLST         171          1.0000000000
      1706       171  ACO   H22           8.7811267979        6.6153032014       13.2031012458  CLST         171          1.0000000000
      1707       171  ACO   H23           7.9678459113        6.7004475046       11.5874670955  CLST         171          1.0000000000
      1708       171  ACO   H31           8.6489518161        4.1764439154       11.1698879305  CLST         171          1.0000000000
      1709       171  ACO   H32           9.4216670674        4.1185017279       12.8090320083  CLST         171          1.0000000000
      1710       171  ACO   H33           8.0854801400        2.9713202608       12.3929288867  CLST         171          1.0000000000
      1711       172  ACO   O1          -10.1175739548        3.5833747679       -5.3806774808  CLST         172          1.0000000000
      1712       172  ACO   C1          -11.0917593837        3.9914866735       -4.7571686847  CLST         172          1.0000000000
      1713       172  ACO   C2          -11.7300957597        3.1784106929       -3.6827665935  CLST         172          1.0000000000
      1714       172  ACO   C3          -11.7108366850        5.3134917204       -5.0584410497  CLST         172          1.0000000000
      1715       172  ACO   H21         -11.7274708881        3.7491397307       -2.7329143368  CLST         172          1.0000000000
      1716       172  ACO   H22         -12.7740851590        2.9334770479       -3.9663393198  CLST         172          1.0000000000
      1717       172  ACO   H23         -11.1521721410        2.2416025384       -3.5442792342  CLST         172          1.0000000000
      1718       172  ACO   H31         -12.7877474995        5.1823704426       -5.2883033211  CLST         172          1.0000000000
      1719       172  ACO   H32         -11.5964147105        5.9870427321       -4.1854523914  CLST         172          1.0000000000
      1720       172  ACO   H33         -11.1985724858        5.7639697739       -5.9328902065  CLST         172          1.0000000000
      1721       173  ACO   O1           10.7409523091        3.2400345475        8.5344093831  CLST         173          1.0000000000
      1722       173  ACO   C1            9.9747560131        2.2953341501        8.7016107674  CLST         173          1.0000000000
      1723       173  ACO   C2            8.9969160126        1.8701942610        7.6625420020  CLST         173          1.0000000000
      1724       173  ACO   C3            9.9751996203        1.4919133237        9.9566010647  CLST         173          1.0000000000
      1725       173  ACO   H21           9.2584238540        0.8548357068        7.3007559713  CLST         173          1.0000000000
      1726       173  ACO   H22           7.9744273285        1.8595004690        8.0913139393  CLST         173          1.0000000000
      1727       173  ACO   H23           9.0376311970        2.5793259978        6.8124260601  CLST         173          1.0000000000
      1728       173  ACO   H31           8.9607586916        1.5050517888       10.4069298067  CLST         173          1.0000000000
      1729       173  ACO   H32          10.2584667666        0.4451668284        9.7244532911  CLST         173          1.0000000000
      1730       173  ACO   H33          10.7009743651        1.9242597220       10.6735587522  CLST         173          1.0000000000
      1731       174  ACO   O1           -4.5030115778       -1.0635195117       -7.1410697516  CLST         174          1.0000000000
      1732       174  ACO   C1           -3.7893152425       -0.4386934220       -7.9196346077  CLST         174          1.0000000000
      1733       174  ACO   C2           -3.2366348105        0.9015986279       -7.5700977435  CLST         174          1.0000000000
      1734       174  ACO   C3           -3.4404540542       -0.9717307689       -9.2676404453  CLST         174          1.0000000000
      1735       174  ACO   H21          -3.6098199400        1.2011380413       -6.5693714183  CLST         174          1.0000000000
      1736       174  ACO   H22          -2.1287162313        0.8521256238       -7.5457202953  CLST         174          1.0000000000
      1737       174  ACO   H23          -3.5635917951        1.6464747712       -8.3233112439  CLST         174          1.0000000000
      1738       174  ACO   H31          -2.3964964014       -0.7022154893       -9.5222974643  CLST         174          1.0000000000
      1739       174  ACO   H32          -3.5431070437       -2.0763360832       -9.2592196808  CLST         174          1.0000000000
      1740       174  ACO   H33          -4.1280724121       -0.5416779589      -10.0239333931  CLST         174          1.0000000000
      1741       175  ACO   O1           -7.8423740702      -10.6986367828        7.6471943281  CLST         175          1.0000000000
      1742       175  ACO   C1           -7.5270126917      -11.5349755090        6.8076568383  CLST         175          1.0000000000
      1743       175  ACO   C2           -8.4365798464      -11.8769548439        5.6763535439  CLST         175          1.0000000000
      1744       175  ACO   C3           -6.2262936406      -12.2646234797        6.8729080369  CLST         175          1.0000000000
      1745       175  ACO   H21          -9.0518337755      -10.9875616093        5.4273492741  CLST         175          1.0000000000
      1746       175  ACO   H22          -7.8430384117      -12.1692059214        4.7855819461  CLST         175          1.0000000000
      1747       175  ACO   H23          -9.1038607043      -12.7103421522        5.9727588424  CLST         175          1.0000000000
      1748       175  ACO   H31          -6.4050856484      -13.3475252812        7.0249550274  CLST         175          1.0000000000
      1749       175  ACO   H32          -5.6625787044      -12.1107779234        5.9295404187  CLST         175          1.0000000000
      1750       175  ACO   H33          -5.6249026111      -11.8718361830        7.7188799990  CLST         175          1.0000000000
      1751       176  ACO   O1            3.6523951315       -4.5562048673        5.7367484572  CLST         176          1.0000000000
      1752       176  ACO   C1            4.5757212655       -5.2964805764        5.4151138062  CLST         176          1.0000000000
      1753       176  ACO   C2            4.3340344836       -6.6606434614        4.8620071491  CLST         176          1.0000000000
      1754       176  ACO   C3            5.9989640825       -4.8762375505        5.5517993513  CLST         176          1.0000000000
      1755       176  ACO   H21           3.2401087723       -6.8393752536        4.8023547582  CLST         176          1.0000000000
      1756       176  ACO   H22           4.7744213945       -6.7377295689        3.8471950798  CLST         176          1.0000000000
      1757       176  ACO   H23           4.7885757576       -7.4196431814        5.5297143167  CLST         176          1.0000000000
      1758       176  ACO   H31           6.5824761253       -5.6610706980        6.0757875248  CLST         176          1.0000000000
      1759       176  ACO   H32           6.4370604414       -4.6991561486        4.5478180931  CLST         176          1.0000000000
      1760       176  ACO   H33           6.0426824836       -3.9353121361        6.1366356591  CLST         176          1.0000000000
      1761       177  ACO   O1            4.6440416554        2.7664466114        2.6013838807  CLST         177          1.0000000000
      1762       177  ACO   C1            3.9928971695        3.5718737506        3.2618364340  CLST         177          1.0000000000
      1763       177  ACO   C2            4.5045035537        4.9365350534        3.5579083233  CLST         177          1.0000000000
      1764       177  ACO   C3            2.6425575966        3.2571964157        3.8065092955  CLST         177          1.0000000000
      1765       177  ACO   H21           5.5388308569        5.0360408341        3.1739596990  CLST         177          1.0000000000
      1766       177  ACO   H22           3.8575972747        5.6898219682        3.0652737462  CLST         177          1.0000000000
      1767       177  ACO   H23           4.5101012471        5.1104019230        4.6531239944  CLST         177          1.0000000000
      1768       177  ACO   H31           2.6126646284        3.4749823359        4.8939018061  CLST         177          1.0000000000
      1769       177  ACO   H32           1.8804244775        3.8710250553        3.2856283875  CLST         177          1.0000000000
      1770       177  ACO   H33           2.4230569634        2.1823464957        3.6479847900  CLST         177          1.0000000000
      1771       178  ACO   O1            9.6208240699       -6.7863128396       -9.7789197599  CLST         178          1.0000000000
      1772       178  ACO   C1           10.4237840880       -7.6334331002       -9.4057988447  CLST         178          1.0000000000
      1773       178  ACO   C2           11.6724218745       -7.2591231643       -8.6819102688  CLST         178          1.0000000000
      1774       178  ACO   C3           10.1995467647       -9.0875058990       -9.6466781078  CLST         178          1.0000000000
      1775       178  ACO   H21          11.7318757685       -6.1532658883       -8.6106795110  CLST         178          1.0000000000
      1776       178  ACO   H22          11.6589704485       -7.6900874371       -7.6603876512  CLST         178          1.0000000000
      1777       178  ACO   H23          12.5566810279       -7.6367741285       -9.2349822010  CLST         178          1.0000000000
      1778       178  ACO   H31          10.9468856249       -9.4671743633      -10.3729481102  CLST         178          1.0000000000
      1779       178  ACO   H32          10.2859322157       -9.6485171627       -8.6947023811  CLST         178          1.0000000000
      1780       178  ACO   H33           9.1818726628       -9.2363377428      -10.0647897448  CLST         178          1.0000000000
