* PRE_MLPOT:MONOMER_REPACK
*  DATE:     6/28/26      2: 3:41      CREATED BY USER: boittier
*
       475  EXT
         1         1  DCM       C               2.5751654200        0.9140594214        0.5844465620  CLST      1               1.0000000000
         2         1  DCM       H1              2.4691226874       -0.1832792210        0.7145403475  CLST      1               1.0000000000
         3         1  DCM       H2              1.6554097410        1.4453322724        0.9048276115  CLST      1               1.0000000000
         4         1  DCM       CL1             3.9492417118        1.4853063921        1.5726192950  CLST      1               1.0000000000
         5         1  DCM       CL2             2.8745216607        1.2721206539       -1.1391940172  CLST      1               1.0000000000
         6         2  DCM       C               0.5527340472       -1.8418972662        2.1766618495  CLST      2               1.0000000000
         7         2  DCM       H1              0.1964028727       -2.8908726934        2.2585971766  CLST      2               1.0000000000
         8         2  DCM       H2              0.2873169675       -1.4052177015        1.1912939772  CLST      2               1.0000000000
         9         2  DCM       CL1            -0.2045007665       -0.8716662484        3.4684334667  CLST      2               1.0000000000
        10         2  DCM       CL2             2.3278678738       -1.8077413039        2.3650504805  CLST      2               1.0000000000
        11         3  DCM       C              -0.5883442430        2.9067252544       -0.2164273464  CLST      3               1.0000000000
        12         3  DCM       H1             -0.9667242531        2.2766663996        0.6162170406  CLST      3               1.0000000000
        13         3  DCM       H2             -1.3713752278        3.0562506951       -0.9888254588  CLST      3               1.0000000000
        14         3  DCM       CL1            -0.0996701007        4.4989251727        0.4328560730  CLST      3               1.0000000000
        15         3  DCM       CL2             0.8190040822        2.0987237049       -0.9632202488  CLST      3               1.0000000000
        16         4  DCM       C               1.1258352687        3.6811081144        1.8247388413  CLST      4               1.0000000000
        17         4  DCM       H1              0.7058641703        2.6533907099        1.8610219851  CLST      4               1.0000000000
        18         4  DCM       H2              0.5306238866        4.3760601345        2.4512002460  CLST      4               1.0000000000
        19         4  DCM       CL1             1.1040942670        4.2660138256        0.1371648168  CLST      4               1.0000000000
        20         4  DCM       CL2             2.8064495934        3.6494951220        2.4294528144  CLST      4               1.0000000000
        21         5  DCM       C               0.5966480301        1.5897260197        2.5530586636  CLST      5               1.0000000000
        22         5  DCM       H1              1.4163903676        2.2384791036        2.1750569196  CLST      5               1.0000000000
        23         5  DCM       H2              0.7024866853        0.5522971336        2.1704452541  CLST      5               1.0000000000
        24         5  DCM       CL1             0.6535023580        1.5625826115        4.3387572481  CLST      5               1.0000000000
        25         5  DCM       CL2            -0.9688027969        2.2586563497        2.0092295311  CLST      5               1.0000000000
        26         6  DCM       C              -1.4212541036       -1.6546702268        1.3302129053  CLST      6               1.0000000000
        27         6  DCM       H1             -0.9475428962       -2.5159805642        0.8137506494  CLST      6               1.0000000000
        28         6  DCM       H2             -1.4934082826       -0.7757533950        0.6554579581  CLST      6               1.0000000000
        29         6  DCM       CL1            -3.0616479990       -2.1239264039        1.8581208077  CLST      6               1.0000000000
        30         6  DCM       CL2            -0.4309568565       -1.2188156911        2.7514299257  CLST      6               1.0000000000
        31         7  DCM       C               1.1484831842        1.2318848474       -2.5331130795  CLST      7               1.0000000000
        32         7  DCM       H1              1.0783857616        2.0926373291       -3.2299221860  CLST      7               1.0000000000
        33         7  DCM       H2              2.0890698868        0.6648632121       -2.6942853693  CLST      7               1.0000000000
        34         7  DCM       CL1             1.1181831108        1.8243017373       -0.8504512541  CLST      7               1.0000000000
        35         7  DCM       CL2            -0.2303548169        0.1364284598       -2.8121188371  CLST      7               1.0000000000
        36         8  DCM       C              -0.4553845975        0.3728850862        3.1079701755  CLST      8               1.0000000000
        37         8  DCM       H1             -0.9822543243        1.0589975204        2.4115070922  CLST      8               1.0000000000
        38         8  DCM       H2              0.5322094111        0.7871422153        3.4006467642  CLST      8               1.0000000000
        39         8  DCM       CL1            -1.4523214421        0.1512594007        4.5745598786  CLST      8               1.0000000000
        40         8  DCM       CL2            -0.2095816750       -1.2034026201        2.3040310256  CLST      8               1.0000000000
        41         9  DCM       C               2.0972741348       -1.6463948192       -1.0594912526  CLST      9               1.0000000000
        42         9  DCM       H1              1.3106459388       -1.4988697866       -0.2898376676  CLST      9               1.0000000000
        43         9  DCM       H2              3.1064961163       -1.6944474603       -0.5981398318  CLST      9               1.0000000000
        44         9  DCM       CL1             1.7807960488       -3.1776554830       -1.9265443744  CLST      9               1.0000000000
        45         9  DCM       CL2             2.0499366243       -0.2776942226       -2.2082160677  CLST      9               1.0000000000
        46        10  DCM       C               2.3329485632       -0.3443054116        1.5249723382  CLST      10              1.0000000000
        47        10  DCM       H1              1.7998466110       -0.0808960488        2.4633311295  CLST      10              1.0000000000
        48        10  DCM       H2              1.6916954755       -0.1570426709        0.6382320314  CLST      10              1.0000000000
        49        10  DCM       CL1             3.8118057584        0.6509507309        1.3956616514  CLST      10              1.0000000000
        50        10  DCM       CL2             2.7709104470       -2.0765833184        1.5694214888  CLST      10              1.0000000000
        51        11  DCM       C              -0.0937073503       -3.1414382385       -0.3513890702  CLST      11              1.0000000000
        52        11  DCM       H1             -0.3119610116       -3.6400042973        0.6148817709  CLST      11              1.0000000000
        53        11  DCM       H2              0.6377263203       -3.7293467105       -0.9458650177  CLST      11              1.0000000000
        54        11  DCM       CL1             0.5819786061       -1.5196265089       -0.0237490859  CLST      11              1.0000000000
        55        11  DCM       CL2            -1.6163830830       -2.9891988931       -1.2739800474  CLST      11              1.0000000000
        56        12  DCM       C               2.2165044155        1.4103383778       -2.9323976072  CLST      12              1.0000000000
        57        12  DCM       H1              2.8668703202        1.4495708428       -3.8325740673  CLST      12              1.0000000000
        58        12  DCM       H2              1.7194341862        2.3877279513       -2.7536566655  CLST      12              1.0000000000
        59        12  DCM       CL1             0.9642480505        0.1602027482       -3.1765290009  CLST      12              1.0000000000
        60        12  DCM       CL2             3.2179371928        0.9978165625       -1.5110052230  CLST      12              1.0000000000
        61        13  DCM       C               2.7761402537       -0.8443929282        1.5715267267  CLST      13              1.0000000000
        62        13  DCM       H1              2.2000844105       -1.7306996368        1.9034271050  CLST      13              1.0000000000
        63        13  DCM       H2              3.8482411549       -0.9405871511        1.8323510485  CLST      13              1.0000000000
        64        13  DCM       CL1             2.6208236589       -0.6993591279       -0.2012726244  CLST      13              1.0000000000
        65        13  DCM       CL2             2.1115159877        0.6121284131        2.3689920993  CLST      13              1.0000000000
        66        14  DCM       C              -1.2877990832        0.7351025220        0.5799871214  CLST      14              1.0000000000
        67        14  DCM       H1             -0.7952777291        0.0018377998       -0.0941145697  CLST      14              1.0000000000
        68        14  DCM       H2             -2.2341244205        1.1097787620        0.1387295458  CLST      14              1.0000000000
        69        14  DCM       CL1            -1.6529336057       -0.0598455381        2.1384213787  CLST      14              1.0000000000
        70        14  DCM       CL2            -0.1861423858        2.1174690782        0.8463998862  CLST      14              1.0000000000
        71        15  DCM       C              -0.2976222614        2.4071617181        2.0188180174  CLST      15              1.0000000000
        72        15  DCM       H1             -0.5073980146        3.2287590870        1.3017821740  CLST      15              1.0000000000
        73        15  DCM       H2              0.5004683028        2.6973596082        2.7340361839  CLST      15              1.0000000000
        74        15  DCM       CL1            -1.7902408792        2.0332993587        2.9283312190  CLST      15              1.0000000000
        75        15  DCM       CL2             0.2371762764        0.9637427369        1.1106307573  CLST      15              1.0000000000
        76        16  DCM       C              -1.9655697005        2.1535105187       -1.2233618205  CLST      16              1.0000000000
        77        16  DCM       H1             -1.1307993569        2.5545011304       -1.8351343041  CLST      16              1.0000000000
        78        16  DCM       H2             -2.7885757306        2.8924502475       -1.1365417175  CLST      16              1.0000000000
        79        16  DCM       CL1            -2.6011082923        0.6754304587       -1.9950496769  CLST      16              1.0000000000
        80        16  DCM       CL2            -1.3604671525        1.7708309776        0.4132045096  CLST      16              1.0000000000
        81        17  DCM       C              -0.4768776062        1.0527525700        1.4319930768  CLST      17              1.0000000000
        82        17  DCM       H1              0.2024053700        1.8676109819        1.1066484334  CLST      17              1.0000000000
        83        17  DCM       H2             -0.3205466481        0.8147151919        2.5037097786  CLST      17              1.0000000000
        84        17  DCM       CL1            -2.1680729947        1.5762042158        1.1943203116  CLST      17              1.0000000000
        85        17  DCM       CL2            -0.1486457714       -0.4098861209        0.4591268533  CLST      17              1.0000000000
        86        18  DCM       C               1.8334163918       -0.4538448607        2.3916490671  CLST      18              1.0000000000
        87        18  DCM       H1              1.2015857337        0.3445331066        1.9512253525  CLST      18              1.0000000000
        88        18  DCM       H2              1.7684577200       -0.4469313965        3.5002909454  CLST      18              1.0000000000
        89        18  DCM       CL1             1.2741886316       -2.0382136433        1.7816102668  CLST      18              1.0000000000
        90        18  DCM       CL2             3.5316926460       -0.1802342042        1.9059407978  CLST      18              1.0000000000
        91        19  DCM       C               0.4038091696        1.8991452899       -2.5860136856  CLST      19              1.0000000000
        92        19  DCM       H1              0.0042967432        0.9487502240       -2.1766017781  CLST      19              1.0000000000
        93        19  DCM       H2              0.8358844339        1.7486275670       -3.5967754591  CLST      19              1.0000000000
        94        19  DCM       CL1            -0.9244775510        3.0925867400       -2.6911518043  CLST      19              1.0000000000
        95        19  DCM       CL2             1.6800530816        2.5074207220       -1.4925006564  CLST      19              1.0000000000
        96        20  DCM       C               0.4504629350       -1.4289669446        0.5070961215  CLST      20              1.0000000000
        97        20  DCM       H1              0.2484246315       -1.3744114283       -0.5834208329  CLST      20              1.0000000000
        98        20  DCM       H2             -0.4955413548       -1.5138468289        1.0823336246  CLST      20              1.0000000000
        99        20  DCM       CL1             1.4676968498       -2.8607068183        0.8383491688  CLST      20              1.0000000000
       100        20  DCM       CL2             1.3082714590        0.0520289071        1.0182192634  CLST      20              1.0000000000
       101        21  DCM       C               0.4829738501       -1.1017278497       -1.3614565603  CLST      21              1.0000000000
       102        21  DCM       H1              0.7995212957       -1.7746845692       -2.1796932760  CLST      21              1.0000000000
       103        21  DCM       H2              0.3617015713       -1.6660019791       -0.4096902250  CLST      21              1.0000000000
       104        21  DCM       CL1             1.7230429328        0.1637124472       -1.1250938605  CLST      21              1.0000000000
       105        21  DCM       CL2            -1.0814032461       -0.3521612376       -1.7910102466  CLST      21              1.0000000000
       106        22  DCM       C               1.6046704330        1.1947252662        2.3945323757  CLST      22              1.0000000000
       107        22  DCM       H1              1.5895204392        0.9857428010        1.3042627020  CLST      22              1.0000000000
       108        22  DCM       H2              1.1403336053        2.1795004431        2.6185550748  CLST      22              1.0000000000
       109        22  DCM       CL1             0.6926501919       -0.0861512610        3.2436482878  CLST      22              1.0000000000
       110        22  DCM       CL2             3.3006663358        1.2066323153        2.9614385285  CLST      22              1.0000000000
       111        23  DCM       C               1.9940429281        0.3754727234        0.8906045115  CLST      23              1.0000000000
       112        23  DCM       H1              1.2605460105       -0.3930934688        1.2127269376  CLST      23              1.0000000000
       113        23  DCM       H2              2.6807385352        0.6455817499        1.7208146748  CLST      23              1.0000000000
       114        23  DCM       CL1             1.1107457112        1.8375458100        0.3627077466  CLST      23              1.0000000000
       115        23  DCM       CL2             2.9543424064       -0.2743603320       -0.4686593006  CLST      23              1.0000000000
       116        24  DCM       C              -1.0137854344       -3.3304319271       -2.0672642760  CLST      24              1.0000000000
       117        24  DCM       H1             -1.4598100887       -4.0412627738       -2.7935130704  CLST      24              1.0000000000
       118        24  DCM       H2             -1.6967737658       -3.1554570121       -1.2094525114  CLST      24              1.0000000000
       119        24  DCM       CL1             0.5226824402       -4.0118001401       -1.4603610862  CLST      24              1.0000000000
       120        24  DCM       CL2            -0.7046827122       -1.7780397578       -2.8952533968  CLST      24              1.0000000000
       121        25  DCM       C              -0.9831793533        1.6977035918       -2.6916984558  CLST      25              1.0000000000
       122        25  DCM       H1             -0.3618300233        2.6029362043       -2.5251754088  CLST      25              1.0000000000
       123        25  DCM       H2             -0.3537171158        0.8257280230       -2.9637953220  CLST      25              1.0000000000
       124        25  DCM       CL1            -2.1342413731        2.0159371550       -4.0218040733  CLST      25              1.0000000000
       125        25  DCM       CL2            -1.8738790220        1.3134971214       -1.1915487877  CLST      25              1.0000000000
       126        26  DCM       C              -0.3184125603       -2.1509178105       -3.1340043286  CLST      26              1.0000000000
       127        26  DCM       H1             -0.1734141534       -1.1987696994       -3.6869933974  CLST      26              1.0000000000
       128        26  DCM       H2             -0.4224324520       -3.0080778098       -3.8324635250  CLST      26              1.0000000000
       129        26  DCM       CL1             1.0967982582       -2.4306070402       -2.0775071843  CLST      26              1.0000000000
       130        26  DCM       CL2            -1.8009897024       -2.0266092829       -2.1423084086  CLST      26              1.0000000000
       131        27  DCM       C              -0.3446941563        2.3697208047       -1.7682680259  CLST      27              1.0000000000
       132        27  DCM       H1             -0.4137921073        2.7271739640       -0.7194409590  CLST      27              1.0000000000
       133        27  DCM       H2             -1.1932165695        2.7538778257       -2.3751434974  CLST      27              1.0000000000
       134        27  DCM       CL1             1.1890763229        2.9445559406       -2.4821174568  CLST      27              1.0000000000
       135        27  DCM       CL2            -0.3842324168        0.5840494901       -1.7757867959  CLST      27              1.0000000000
       136        28  DCM       C              -0.5049029791       -2.2030179005        0.2885769517  CLST      28              1.0000000000
       137        28  DCM       H1              0.2234513527       -2.7100002049       -0.3780677132  CLST      28              1.0000000000
       138        28  DCM       H2             -0.7197941193       -2.8198155199        1.1867765759  CLST      28              1.0000000000
       139        28  DCM       CL1             0.1783138243       -0.6340854926        0.8093121724  CLST      28              1.0000000000
       140        28  DCM       CL2            -2.0233750517       -1.9382919251       -0.6165893366  CLST      28              1.0000000000
       141        29  DCM       C              -2.8844889302        0.2035733948       -0.5758830755  CLST      29              1.0000000000
       142        29  DCM       H1             -2.1995197143       -0.4840080269       -0.0366104421  CLST      29              1.0000000000
       143        29  DCM       H2             -3.5896070635       -0.3609717609       -1.2210170224  CLST      29              1.0000000000
       144        29  DCM       CL1            -3.8206425891        1.1527756792        0.6143714522  CLST      29              1.0000000000
       145        29  DCM       CL2            -1.9176129694        1.3010761477       -1.6016525092  CLST      29              1.0000000000
       146        30  DCM       C              -2.7870350032       -1.5902827014       -0.1713989382  CLST      30              1.0000000000
       147        30  DCM       H1             -3.1752044007       -2.3014196883        0.5890902393  CLST      30              1.0000000000
       148        30  DCM       H2             -3.5242663488       -0.7849528452       -0.3764826766  CLST      30              1.0000000000
       149        30  DCM       CL1            -1.2757747803       -0.8551915534        0.4344137873  CLST      30              1.0000000000
       150        30  DCM       CL2            -2.4617646381       -2.4795231080       -1.6850656940  CLST      30              1.0000000000
       151        31  DCM       C              -1.5414226937       -0.8123293331       -2.9709660063  CLST      31              1.0000000000
       152        31  DCM       H1             -0.4709495767       -0.5197280513       -2.9456006433  CLST      31              1.0000000000
       153        31  DCM       H2             -2.1911170476        0.0855439882       -3.0322377366  CLST      31              1.0000000000
       154        31  DCM       CL1            -1.8388184947       -1.8448767708       -4.3989157816  CLST      31              1.0000000000
       155        31  DCM       CL2            -1.9354424706       -1.7164511778       -1.4816326802  CLST      31              1.0000000000
       156        32  DCM       C              -0.2447632180        0.9435650921       -0.5136361391  CLST      32              1.0000000000
       157        32  DCM       H1             -0.3967486581        0.3787245045       -1.4576555105  CLST      32              1.0000000000
       158        32  DCM       H2              0.3053173659        1.8892706606       -0.7022455559  CLST      32              1.0000000000
       159        32  DCM       CL1            -1.8371461525        1.3356134670        0.1984564835  CLST      32              1.0000000000
       160        32  DCM       CL2             0.6992169247       -0.0666331012        0.6219736705  CLST      32              1.0000000000
       161        33  DCM       C               3.2992145152        1.4720329430        1.9791694352  CLST      33              1.0000000000
       162        33  DCM       H1              4.1400867052        2.1342582719        1.6830193153  CLST      33              1.0000000000
       163        33  DCM       H2              3.4736100836        0.4285372284        1.6414886429  CLST      33              1.0000000000
       164        33  DCM       CL1             3.1446871142        1.4884932064        3.7602864814  CLST      33              1.0000000000
       165        33  DCM       CL2             1.7909340440        2.0795645391        1.2360362861  CLST      33              1.0000000000
       166        34  DCM       C               0.3106988677        2.3930543542        2.3504516280  CLST      34              1.0000000000
       167        34  DCM       H1              0.5855987582        1.4714128746        1.7950792526  CLST      34              1.0000000000
       168        34  DCM       H2             -0.7890694899        2.4597912053        2.4913668440  CLST      34              1.0000000000
       169        34  DCM       CL1             0.8605868299        3.8188002795        1.4243156288  CLST      34              1.0000000000
       170        34  DCM       CL2             1.1072392160        2.3693495233        3.9507231015  CLST      34              1.0000000000
       171        35  DCM       C               0.8866745199        0.6322594446       -0.0055306141  CLST      35              1.0000000000
       172        35  DCM       H1              1.5316099203        0.3537941778        0.8545375917  CLST      35              1.0000000000
       173        35  DCM       H2              1.3788987618        0.3874451474       -0.9703598125  CLST      35              1.0000000000
       174        35  DCM       CL1            -0.6522211701       -0.2678413447        0.1067982993  CLST      35              1.0000000000
       175        35  DCM       CL2             0.5692838818        2.3894807977        0.0546908707  CLST      35              1.0000000000
       176        36  DCM       C              -2.0163983711       -0.2072292537       -1.7178973916  CLST      36              1.0000000000
       177        36  DCM       H1             -1.4503104159       -0.9533815869       -2.3106824656  CLST      36              1.0000000000
       178        36  DCM       H2             -1.3334594528        0.5679091419       -1.3171219863  CLST      36              1.0000000000
       179        36  DCM       CL1            -2.8323765693       -1.0256834160       -0.3558492638  CLST      36              1.0000000000
       180        36  DCM       CL2            -3.2337049263        0.5681540013       -2.7675657799  CLST      36              1.0000000000
       181        37  DCM       C              -2.5840822568        2.8320390638       -2.3088032875  CLST      37              1.0000000000
       182        37  DCM       H1             -1.7525735951        3.3553009603       -1.7930034960  CLST      37              1.0000000000
       183        37  DCM       H2             -3.1277817846        3.5222534573       -2.9883461779  CLST      37              1.0000000000
       184        37  DCM       CL1            -3.7196697851        2.2035818885       -1.0803090293  CLST      37              1.0000000000
       185        37  DCM       CL2            -1.9081574906        1.4819383977       -3.2645779230  CLST      37              1.0000000000
       186        38  DCM       C               2.5125237312       -1.7945418941       -0.7214066295  CLST      38              1.0000000000
       187        38  DCM       H1              2.6213990399       -1.6560841378       -1.8145047403  CLST      38              1.0000000000
       188        38  DCM       H2              1.7430507870       -1.1069659643       -0.3049529296  CLST      38              1.0000000000
       189        38  DCM       CL1             2.0159100782       -3.4814735481       -0.3949764067  CLST      38              1.0000000000
       190        38  DCM       CL2             4.0785954878       -1.4614445320        0.0754234406  CLST      38              1.0000000000
       191        39  DCM       C               1.6595200000        2.4662832281        2.8569592289  CLST      39              1.0000000000
       192        39  DCM       H1              1.9844200052        1.4130411637        2.9916646812  CLST      39              1.0000000000
       193        39  DCM       H2              0.6038774605        2.6010264195        3.1717541128  CLST      39              1.0000000000
       194        39  DCM       CL1             2.6946168046        3.5301633336        3.8510838012  CLST      39              1.0000000000
       195        39  DCM       CL2             1.8140634025        2.9079291737        1.1323002493  CLST      39              1.0000000000
       196        40  DCM       C              -2.6128510100       -1.6751877491       -2.7266786545  CLST      40              1.0000000000
       197        40  DCM       H1             -2.7285979377       -0.6303219731       -2.3677987578  CLST      40              1.0000000000
       198        40  DCM       H2             -3.4598791932       -2.3101619556       -2.3880990530  CLST      40              1.0000000000
       199        40  DCM       CL1            -2.5628055959       -1.6757246822       -4.5134997012  CLST      40              1.0000000000
       200        40  DCM       CL2            -1.0869062627       -2.3460692044       -2.0814654833  CLST      40              1.0000000000
       201        41  DCM       C              -2.2102341511        0.1162264119       -1.9849536257  CLST      41              1.0000000000
       202        41  DCM       H1             -2.6401636052        0.0164918782       -0.9669029075  CLST      41              1.0000000000
       203        41  DCM       H2             -1.3226151368       -0.5389745940       -2.1004406914  CLST      41              1.0000000000
       204        41  DCM       CL1            -3.4454549129       -0.3560603267       -3.1853299669  CLST      41              1.0000000000
       205        41  DCM       CL2            -1.7168474360        1.8124846216       -2.2549095209  CLST      41              1.0000000000
       206        42  DCM       C              -0.6775507756        0.5889951153       -0.1187637404  CLST      42              1.0000000000
       207        42  DCM       H1             -1.4452320529       -0.0491796620        0.3702562055  CLST      42              1.0000000000
       208        42  DCM       H2             -1.1155838754        1.5579537916       -0.4436016619  CLST      42              1.0000000000
       209        42  DCM       CL1             0.6444370962        0.9029753612        1.0402500550  CLST      42              1.0000000000
       210        42  DCM       CL2            -0.0355637974       -0.2681842350       -1.5500616057  CLST      42              1.0000000000
       211        43  DCM       C              -2.2455257639        2.7286566962       -1.3410939232  CLST      43              1.0000000000
       212        43  DCM       H1             -1.7222148039        2.1728770245       -0.5346393934  CLST      43              1.0000000000
       213        43  DCM       H2             -2.3575150561        2.0998762176       -2.2501658748  CLST      43              1.0000000000
       214        43  DCM       CL1            -1.2991055967        4.1896461772       -1.7507363094  CLST      43              1.0000000000
       215        43  DCM       CL2            -3.8671229599        3.1969105855       -0.7559778709  CLST      43              1.0000000000
       216        44  DCM       C               2.0317794261        1.7422090912       -0.7694159010  CLST      44              1.0000000000
       217        44  DCM       H1              1.8014821606        0.7746460773       -1.2638874406  CLST      44              1.0000000000
       218        44  DCM       H2              2.9967914175        2.1578659525       -1.1302181353  CLST      44              1.0000000000
       219        44  DCM       CL1             2.1383943931        1.4805238345        0.9947202872  CLST      44              1.0000000000
       220        44  DCM       CL2             0.7264755426        2.9082978190       -1.1324839017  CLST      44              1.0000000000
       221        45  DCM       C               2.6893629049       -2.6378865564       -1.3875519281  CLST      45              1.0000000000
       222        45  DCM       H1              3.2862130974       -2.3777154261       -0.4872808809  CLST      45              1.0000000000
       223        45  DCM       H2              2.0375946695       -1.7927971954       -1.6926686282  CLST      45              1.0000000000
       224        45  DCM       CL1             3.8002786439       -3.0281378018       -2.7313603528  CLST      45              1.0000000000
       225        45  DCM       CL2             1.6693446802       -4.0574143053       -1.0166597000  CLST      45              1.0000000000
       226        46  DCM       C              -0.7992754904       -1.1195869003        1.5121067670  CLST      46              1.0000000000
       227        46  DCM       H1             -1.3806893951       -2.0631970914        1.4801549956  CLST      46              1.0000000000
       228        46  DCM       H2             -1.1750428876       -0.4522882249        2.3146941295  CLST      46              1.0000000000
       229        46  DCM       CL1             0.9149159467       -1.5042905127        1.8355356325  CLST      46              1.0000000000
       230        46  DCM       CL2            -0.9496262506       -0.2869805787       -0.0630263179  CLST      46              1.0000000000
       231        47  DCM       C               2.1222984479       -2.0310983230       -2.9089714592  CLST      47              1.0000000000
       232        47  DCM       H1              2.4050566055       -1.7842175671       -3.9544130894  CLST      47              1.0000000000
       233        47  DCM       H2              1.0403241987       -1.8517063173       -2.7347522342  CLST      47              1.0000000000
       234        47  DCM       CL1             2.4870233459       -3.7522918406       -2.5981164378  CLST      47              1.0000000000
       235        47  DCM       CL2             3.0684420022       -1.0073193918       -1.7928354155  CLST      47              1.0000000000
       236        48  DCM       C               0.6477470273       -2.0729524266        0.1178718449  CLST      48              1.0000000000
       237        48  DCM       H1              1.4152320875       -1.2844604657        0.2585289325  CLST      48              1.0000000000
       238        48  DCM       H2              0.0257812883       -2.1954154475        1.0301053947  CLST      48              1.0000000000
       239        48  DCM       CL1            -0.4112389998       -1.6170160910       -1.2471038013  CLST      48              1.0000000000
       240        48  DCM       CL2             1.4653293707       -3.6210777764       -0.2441506932  CLST      48              1.0000000000
       241        49  DCM       C               1.6180876368        2.1518795837        0.8507671426  CLST      49              1.0000000000
       242        49  DCM       H1              0.5134062977        2.0555344912        0.8281866793  CLST      49              1.0000000000
       243        49  DCM       H2              1.9616246657        2.5935836175        1.8101994766  CLST      49              1.0000000000
       244        49  DCM       CL1             2.3384775445        0.5273005242        0.6615488869  CLST      49              1.0000000000
       245        49  DCM       CL2             2.1325857542        3.2048155478       -0.4987466224  CLST      49              1.0000000000
       246        50  DCM       C              -2.1120470136       -1.2088441123        2.8491429932  CLST      50              1.0000000000
       247        50  DCM       H1             -2.7405764813       -1.9781926771        2.3526863125  CLST      50              1.0000000000
       248        50  DCM       H2             -1.2064116947       -1.6630381841        3.3033986348  CLST      50              1.0000000000
       249        50  DCM       CL1            -1.6053113107       -0.0005416710        1.6330817485  CLST      50              1.0000000000
       250        50  DCM       CL2            -3.0718536992       -0.4145566987        4.1312347067  CLST      50              1.0000000000
       251        51  DCM       C               3.1764696471        1.2375906422        0.1603603172  CLST      51              1.0000000000
       252        51  DCM       H1              2.9500565251        0.3846460594        0.8332276755  CLST      51              1.0000000000
       253        51  DCM       H2              3.1241989602        2.1973452946        0.7144725471  CLST      51              1.0000000000
       254        51  DCM       CL1             4.8245077750        1.0331138654       -0.4982128658  CLST      51              1.0000000000
       255        51  DCM       CL2             1.9864796924        1.2685961675       -1.1730462616  CLST      51              1.0000000000
       256        52  DCM       C               1.1688373568       -2.0466218707        1.0340729319  CLST      52              1.0000000000
       257        52  DCM       H1              0.3584348290       -1.7168191776        0.3507988190  CLST      52              1.0000000000
       258        52  DCM       H2              1.0128752433       -3.0959082469        1.3601567030  CLST      52              1.0000000000
       259        52  DCM       CL1             2.7351595351       -1.9287640905        0.1791405015  CLST      52              1.0000000000
       260        52  DCM       CL2             1.1812726000       -0.9839866924        2.4725881319  CLST      52              1.0000000000
       261        53  DCM       C              -2.5727646458        0.5858967985        2.3349761921  CLST      53              1.0000000000
       262        53  DCM       H1             -2.3303952865        1.3015199918        1.5210596258  CLST      53              1.0000000000
       263        53  DCM       H2             -1.7979732131       -0.2058661539        2.4131870822  CLST      53              1.0000000000
       264        53  DCM       CL1            -2.6572815510        1.4727916473        3.8843691492  CLST      53              1.0000000000
       265        53  DCM       CL2            -4.1522628245       -0.1746370390        1.9857740629  CLST      53              1.0000000000
       266        54  DCM       C               0.6529251930        1.2780780054       -0.4179692031  CLST      54              1.0000000000
       267        54  DCM       H1              1.1318485789        0.5025771812        0.2155137179  CLST      54              1.0000000000
       268        54  DCM       H2              1.2782074802        1.5126657556       -1.3037335299  CLST      54              1.0000000000
       269        54  DCM       CL1            -0.9373642909        0.6798551436       -0.9689922698  CLST      54              1.0000000000
       270        54  DCM       CL2             0.4384961565        2.7634786288        0.5493062086  CLST      54              1.0000000000
       271        55  DCM       C              -3.7325682798        1.6761019258       -0.5916968512  CLST      55              1.0000000000
       272        55  DCM       H1             -3.6318083596        1.0819711366       -1.5251621670  CLST      55              1.0000000000
       273        55  DCM       H2             -4.1342157173        2.6879654335       -0.8070091940  CLST      55              1.0000000000
       274        55  DCM       CL1            -4.8502102770        0.8313604333        0.5183207548  CLST      55              1.0000000000
       275        55  DCM       CL2            -2.1260765829        1.8368987851        0.1747652468  CLST      55              1.0000000000
       276        56  DCM       C               0.6576083704       -0.6532814071       -2.0846190737  CLST      56              1.0000000000
       277        56  DCM       H1              0.0142009891        0.0633253501       -1.5330599022  CLST      56              1.0000000000
       278        56  DCM       H2              1.4144855849       -0.1213142708       -2.6970394254  CLST      56              1.0000000000
       279        56  DCM       CL1             1.4931106142       -1.7086776027       -0.9096428246  CLST      56              1.0000000000
       280        56  DCM       CL2            -0.3709602468       -1.6415135361       -3.1596345238  CLST      56              1.0000000000
       281        57  DCM       C               1.7715529452       -0.6566337452        0.8519884663  CLST      57              1.0000000000
       282        57  DCM       H1              1.6071602836       -1.3501866124        0.0003343369  CLST      57              1.0000000000
       283        57  DCM       H2              2.8507365369       -0.5826611013        1.1036803971  CLST      57              1.0000000000
       284        57  DCM       CL1             1.1654612092        0.9641999347        0.4077730651  CLST      57              1.0000000000
       285        57  DCM       CL2             0.8794822060       -1.2644140121        2.2762975485  CLST      57              1.0000000000
       286        58  DCM       C               2.8040476026       -0.2148789027       -2.6940883976  CLST      58              1.0000000000
       287        58  DCM       H1              2.2752411665        0.6270188502       -2.2009233639  CLST      58              1.0000000000
       288        58  DCM       H2              3.8542620245       -0.2853131697       -2.3416467744  CLST      58              1.0000000000
       289        58  DCM       CL1             1.9576912656       -1.7404225659       -2.3073858372  CLST      58              1.0000000000
       290        58  DCM       CL2             2.8010657672        0.0504141722       -4.4620613690  CLST      58              1.0000000000
       291        59  DCM       C              -0.4899025466        3.2620656634       -0.4931480814  CLST      59              1.0000000000
       292        59  DCM       H1             -1.1937616002        3.9307023393       -1.0338388786  CLST      59              1.0000000000
       293        59  DCM       H2             -0.8023679108        3.1280486127        0.5644092764  CLST      59              1.0000000000
       294        59  DCM       CL1            -0.4691307220        1.6656854733       -1.2911214605  CLST      59              1.0000000000
       295        59  DCM       CL2             1.1490929425        3.9762880412       -0.5315945975  CLST      59              1.0000000000
       296        60  DCM       C               1.9596780200        3.1037811787       -1.8556878408  CLST      60              1.0000000000
       297        60  DCM       H1              2.5163878373        3.2480213978       -0.9059231671  CLST      60              1.0000000000
       298        60  DCM       H2              1.5291091666        4.0612716257       -2.2145641411  CLST      60              1.0000000000
       299        60  DCM       CL1             3.0773936461        2.4700411629       -3.0988312876  CLST      60              1.0000000000
       300        60  DCM       CL2             0.6300432842        1.9407617124       -1.5844437590  CLST      60              1.0000000000
       301        61  DCM       C               3.0079145455       -2.3646733140       -1.8605443540  CLST      61              1.0000000000
       302        61  DCM       H1              1.9167750577       -2.5642428706       -1.7900190069  CLST      61              1.0000000000
       303        61  DCM       H2              3.2078654671       -1.2810504542       -2.0079015520  CLST      61              1.0000000000
       304        61  DCM       CL1             3.7942193774       -2.9000756723       -0.3477968965  CLST      61              1.0000000000
       305        61  DCM       CL2             3.6741467206       -3.2709680388       -3.2493648234  CLST      61              1.0000000000
       306        62  DCM       C              -2.5628115605       -2.6493831479        2.3435335574  CLST      62              1.0000000000
       307        62  DCM       H1             -2.5596092020       -3.0011827345        1.2914259020  CLST      62              1.0000000000
       308        62  DCM       H2             -2.2011728486       -3.4424630317        3.0333119595  CLST      62              1.0000000000
       309        62  DCM       CL1            -1.4962870113       -1.2219212909        2.4829592783  CLST      62              1.0000000000
       310        62  DCM       CL2            -4.2317160167       -2.1997897902        2.7963476320  CLST      62              1.0000000000
       311        63  DCM       C              -2.2338032377       -1.9480154224       -1.4407866100  CLST      63              1.0000000000
       312        63  DCM       H1             -2.4044445799       -0.8675402251       -1.6300977695  CLST      63              1.0000000000
       313        63  DCM       H2             -2.9078826905       -2.3248992188       -0.6429416535  CLST      63              1.0000000000
       314        63  DCM       CL1            -2.5493653583       -2.8594139179       -2.9455687019  CLST      63              1.0000000000
       315        63  DCM       CL2            -0.5383415380       -2.1893638585       -0.9309188918  CLST      63              1.0000000000
       316        64  DCM       C               0.9271979022        2.2845107503        2.3453428818  CLST      64              1.0000000000
       317        64  DCM       H1              1.0157711782        3.1430186980        1.6438650311  CLST      64              1.0000000000
       318        64  DCM       H2              1.9044869563        1.7751118636        2.4756934880  CLST      64              1.0000000000
       319        64  DCM       CL1             0.3727161936        2.8853043186        3.9330202681  CLST      64              1.0000000000
       320        64  DCM       CL2            -0.2485343646        1.1109461821        1.6829049939  CLST      64              1.0000000000
       321        65  DCM       C               1.0325001606       -3.3140291254        0.4687597287  CLST      65              1.0000000000
       322        65  DCM       H1              0.6690397018       -3.3077004386       -0.5785342783  CLST      65              1.0000000000
       323        65  DCM       H2              0.3463648799       -2.7488037531        1.1339141312  CLST      65              1.0000000000
       324        65  DCM       CL1             1.1323233721       -5.0047032687        1.0413780490  CLST      65              1.0000000000
       325        65  DCM       CL2             2.6508424340       -2.5559943639        0.5281248995  CLST      65              1.0000000000
       326        66  DCM       C              -1.7280662202       -0.9984177776       -1.0505714309  CLST      66              1.0000000000
       327        66  DCM       H1             -2.3138722757       -0.0598154237       -0.9599570108  CLST      66              1.0000000000
       328        66  DCM       H2             -1.2266673368       -1.2483878810       -0.0918634150  CLST      66              1.0000000000
       329        66  DCM       CL1            -2.8319449026       -2.3326709547       -1.4922030873  CLST      66              1.0000000000
       330        66  DCM       CL2            -0.4874521181       -0.7908753688       -2.3212763949  CLST      66              1.0000000000
       331        67  DCM       C              -0.0451689161        1.5868807848        0.8660998818  CLST      67              1.0000000000
       332        67  DCM       H1             -0.5801085395        1.9175022431        1.7817715554  CLST      67              1.0000000000
       333        67  DCM       H2             -0.7521670681        1.4386195958        0.0227801982  CLST      67              1.0000000000
       334        67  DCM       CL1             1.1507257957        2.8328784690        0.4076433637  CLST      67              1.0000000000
       335        67  DCM       CL2             0.7907135550        0.0433076227        1.2014228181  CLST      67              1.0000000000
       336        68  DCM       C               1.7221636458       -0.7450868101        2.7263746135  CLST      68              1.0000000000
       337        68  DCM       H1              2.6151376136       -1.1252221602        2.1865062936  CLST      68              1.0000000000
       338        68  DCM       H2              1.0681551062       -1.5794044444        3.0532270707  CLST      68              1.0000000000
       339        68  DCM       CL1             2.2559029715        0.1682022915        4.1673934087  CLST      68              1.0000000000
       340        68  DCM       CL2             0.7915623272        0.3236625371        1.6374916419  CLST      68              1.0000000000
       341        69  DCM       C              -1.5571146242        2.9565744460        1.0204227936  CLST      69              1.0000000000
       342        69  DCM       H1             -0.6983896345        3.4887312933        1.4816862629  CLST      69              1.0000000000
       343        69  DCM       H2             -1.2165393660        2.2668211086        0.2193986481  CLST      69              1.0000000000
       344        69  DCM       CL1            -2.3993277271        2.0110578919        2.2821709230  CLST      69              1.0000000000
       345        69  DCM       CL2            -2.6771621777        4.1594130685        0.3163608220  CLST      69              1.0000000000
       346        70  DCM       C              -2.3762979205       -2.7925732622        0.9751855715  CLST      70              1.0000000000
       347        70  DCM       H1             -2.5538290244       -2.3014185877        1.9550602967  CLST      70              1.0000000000
       348        70  DCM       H2             -1.3203191697       -3.1226367508        0.8779738183  CLST      70              1.0000000000
       349        70  DCM       CL1            -3.4443568067       -4.2199630870        0.8368765061  CLST      70              1.0000000000
       350        70  DCM       CL2            -2.7449365166       -1.6314079730       -0.3338838312  CLST      70              1.0000000000
       351        71  DCM       C               1.1035459161       -0.9682975009       -2.3518784659  CLST      71              1.0000000000
       352        71  DCM       H1              0.3773763351       -0.8667403677       -3.1859707530  CLST      71              1.0000000000
       353        71  DCM       H2              1.5170469533        0.0202295981       -2.0594599481  CLST      71              1.0000000000
       354        71  DCM       CL1             0.2774029199       -1.6952372299       -0.9431977675  CLST      71              1.0000000000
       355        71  DCM       CL2             2.4444460835       -2.0260520003       -2.8757924484  CLST      71              1.0000000000
       356        72  DCM       C              -0.7818416997       -1.9384167724        1.7733218416  CLST      72              1.0000000000
       357        72  DCM       H1             -1.3658425858       -2.6120380113        2.4360335177  CLST      72              1.0000000000
       358        72  DCM       H2             -1.2390136165       -0.9277364561        1.7340757165  CLST      72              1.0000000000
       359        72  DCM       CL1            -0.7525385390       -2.6308221603        0.1269207868  CLST      72              1.0000000000
       360        72  DCM       CL2             0.8865797649       -1.8050851535        2.3993419863  CLST      72              1.0000000000
       361        73  DCM       C              -2.8762928386       -1.4164633038        2.7219622525  CLST      73              1.0000000000
       362        73  DCM       H1             -2.2943321358       -2.2697000627        3.1262371834  CLST      73              1.0000000000
       363        73  DCM       H2             -3.9672831822       -1.6227135039        2.7629922843  CLST      73              1.0000000000
       364        73  DCM       CL1            -2.5174756220        0.0301782497        3.7010744773  CLST      73              1.0000000000
       365        73  DCM       CL2            -2.3973008650       -1.1353104224        1.0240021070  CLST      73              1.0000000000
       366        74  DCM       C              -1.5567581087       -2.5135317529        1.7998846073  CLST      74              1.0000000000
       367        74  DCM       H1             -2.5188378220       -1.9610988158        1.8506110262  CLST      74              1.0000000000
       368        74  DCM       H2             -1.3639490138       -3.0596723545        2.7473850893  CLST      74              1.0000000000
       369        74  DCM       CL1            -1.6287839801       -3.6926873735        0.4588453995  CLST      74              1.0000000000
       370        74  DCM       CL2            -0.2302496427       -1.3509112601        1.5113897122  CLST      74              1.0000000000
       371        75  DCM       C              -2.0507969429        0.8493856740       -0.6887529228  CLST      75              1.0000000000
       372        75  DCM       H1             -2.3281687148        1.8671286099       -1.0379620911  CLST      75              1.0000000000
       373        75  DCM       H2             -0.9549997964        0.7802160416       -0.5058215136  CLST      75              1.0000000000
       374        75  DCM       CL1            -2.9178706565        0.4949682007        0.8317269719  CLST      75              1.0000000000
       375        75  DCM       CL2            -2.5081611179       -0.3417407358       -1.9389727573  CLST      75              1.0000000000
       376        76  DCM       C              -1.0859390981       -0.8642571904        0.9081317141  CLST      76              1.0000000000
       377        76  DCM       H1             -0.7614645610       -1.5176540994        0.0726677120  CLST      76              1.0000000000
       378        76  DCM       H2             -0.7139412966       -1.2487569130        1.8813371135  CLST      76              1.0000000000
       379        76  DCM       CL1            -0.4394598135        0.7764050186        0.6467233990  CLST      76              1.0000000000
       380        76  DCM       CL2            -2.8684251403       -0.7921843200        0.9405955847  CLST      76              1.0000000000
       381        77  DCM       C              -2.6508376761        0.6431917727       -1.4907713865  CLST      77              1.0000000000
       382        77  DCM       H1             -2.0815886265        0.9633698571       -2.3864517238  CLST      77              1.0000000000
       383        77  DCM       H2             -3.5124641860        1.3147550520       -1.3002743194  CLST      77              1.0000000000
       384        77  DCM       CL1            -3.2490538923       -1.0198885998       -1.7535181270  CLST      77              1.0000000000
       385        77  DCM       CL2            -1.5536344923        0.6832322508       -0.0829289646  CLST      77              1.0000000000
       386        78  DCM       C              -2.1485979400        1.1372810598        2.4074328798  CLST      78              1.0000000000
       387        78  DCM       H1             -2.6418263548        1.3220122240        3.3853572465  CLST      78              1.0000000000
       388        78  DCM       H2             -1.7697184967        2.0834962225        1.9664782665  CLST      78              1.0000000000
       389        78  DCM       CL1            -0.7733459510        0.0229600188        2.6512663762  CLST      78              1.0000000000
       390        78  DCM       CL2            -3.3333373103        0.4086393542        1.2852567081  CLST      78              1.0000000000
       391        79  DCM       C               0.3000776227       -2.8929816593        2.5960162307  CLST      79              1.0000000000
       392        79  DCM       H1              0.2626924063       -2.3365379440        1.6354060185  CLST      79              1.0000000000
       393        79  DCM       H2              0.4704305542       -3.9750781046        2.4212226888  CLST      79              1.0000000000
       394        79  DCM       CL1             1.6334569580       -2.2467100397        3.5942424223  CLST      79              1.0000000000
       395        79  DCM       CL2            -1.2548338188       -2.6825590524        3.4493271267  CLST      79              1.0000000000
       396        80  DCM       C               1.9098760314        2.7759317780       -1.4051946298  CLST      80              1.0000000000
       397        80  DCM       H1              2.0198385726        3.8786274405       -1.3514419555  CLST      80              1.0000000000
       398        80  DCM       H2              2.5785421605        2.3447632367       -2.1797605630  CLST      80              1.0000000000
       399        80  DCM       CL1             2.3313121255        2.0678355407        0.1807296616  CLST      80              1.0000000000
       400        80  DCM       CL2             0.2137109409        2.3883750970       -1.8140549205  CLST      80              1.0000000000
       401        81  DCM       C              -0.7665466332       -1.4957718908       -1.0867372718  CLST      81              1.0000000000
       402        81  DCM       H1              0.1097954538       -1.1162384077       -1.6518190335  CLST      81              1.0000000000
       403        81  DCM       H2             -0.6101642960       -2.5431778385       -0.7620028440  CLST      81              1.0000000000
       404        81  DCM       CL1            -1.0188482034       -0.4654495626        0.3551814975  CLST      81              1.0000000000
       405        81  DCM       CL2            -2.2127376550       -1.4261303003       -2.1372264292  CLST      81              1.0000000000
       406        82  DCM       C               1.0323802516       -0.7656925483       -4.0573541849  CLST      82              1.0000000000
       407        82  DCM       H1              1.3569905298        0.0543469169       -4.7338190892  CLST      82              1.0000000000
       408        82  DCM       H2             -0.0155566587       -0.6124334881       -3.7200489423  CLST      82              1.0000000000
       409        82  DCM       CL1             1.1364196298       -2.3164299047       -4.9326666219  CLST      82              1.0000000000
       410        82  DCM       CL2             2.1030099019       -0.8046868364       -2.6290231824  CLST      82              1.0000000000
       411        83  DCM       C              -1.8479536904        0.2001671858        0.1606557773  CLST      83              1.0000000000
       412        83  DCM       H1             -2.1364334433       -0.1147117645        1.1855808499  CLST      83              1.0000000000
       413        83  DCM       H2             -1.1431998039       -0.5250940424       -0.2985750547  CLST      83              1.0000000000
       414        83  DCM       CL1            -1.0593494547        1.8030553546        0.2438655238  CLST      83              1.0000000000
       415        83  DCM       CL2            -3.3195764142        0.2962830446       -0.8501460996  CLST      83              1.0000000000
       416        84  DCM       C               3.4289626433       -2.8141105291        0.3393164788  CLST      84              1.0000000000
       417        84  DCM       H1              4.2840361491       -2.1109206111        0.4246269817  CLST      84              1.0000000000
       418        84  DCM       H2              2.4671473166       -2.2906459667        0.5161251931  CLST      84              1.0000000000
       419        84  DCM       CL1             3.4164379044       -3.5242176649       -1.3007394919  CLST      84              1.0000000000
       420        84  DCM       CL2             3.6086776027       -4.1118281999        1.5537611317  CLST      84              1.0000000000
       421        85  DCM       C               3.6448966685        1.0870727804       -0.5873705151  CLST      85              1.0000000000
       422        85  DCM       H1              4.3757636150        0.6618810736       -1.3048481011  CLST      85              1.0000000000
       423        85  DCM       H2              4.1115345426        1.2585712964        0.4046683185  CLST      85              1.0000000000
       424        85  DCM       CL1             3.0546864857        2.6477614449       -1.2244730832  CLST      85              1.0000000000
       425        85  DCM       CL2             2.2867049704       -0.0580821108       -0.3991543520  CLST      85              1.0000000000
       426        86  DCM       C               1.1683953242       -0.1600510689        1.7906865821  CLST      86              1.0000000000
       427        86  DCM       H1              0.1702455599       -0.6469837991        1.7803162815  CLST      86              1.0000000000
       428        86  DCM       H2              1.2277052171        0.6145144295        2.5844835011  CLST      86              1.0000000000
       429        86  DCM       CL1             2.4165442617       -1.4033922692        2.0956240262  CLST      86              1.0000000000
       430        86  DCM       CL2             1.4541802091        0.6120029717        0.2037985264  CLST      86              1.0000000000
       431        87  DCM       C               0.4194408767       -0.1542822130        0.8424049910  CLST      87              1.0000000000
       432        87  DCM       H1             -0.4798926443       -0.8064661462        0.8441349150  CLST      87              1.0000000000
       433        87  DCM       H2              0.3795011802        0.5831731025        1.6713999170  CLST      87              1.0000000000
       434        87  DCM       CL1             1.8764308000       -1.1713621999        1.0402743122  CLST      87              1.0000000000
       435        87  DCM       CL2             0.4987119981        0.7242261129       -0.7131288886  CLST      87              1.0000000000
       436        88  DCM       C               0.7119195820       -1.0955768067       -1.7378554938  CLST      88              1.0000000000
       437        88  DCM       H1              0.9362084254       -0.1938888362       -1.1297344451  CLST      88              1.0000000000
       438        88  DCM       H2              1.1545666938       -2.0060618727       -1.2836745079  CLST      88              1.0000000000
       439        88  DCM       CL1            -1.0580930962       -1.3094207519       -1.8300080496  CLST      88              1.0000000000
       440        88  DCM       CL2             1.3862998191       -0.8772603148       -3.3787369137  CLST      88              1.0000000000
       441        89  DCM       C              -1.4872512934       -2.8543415235        0.4320876386  CLST      89              1.0000000000
       442        89  DCM       H1             -0.9350535444       -1.9300849959        0.7046352351  CLST      89              1.0000000000
       443        89  DCM       H2             -1.4978943208       -3.5781398013        1.2746653078  CLST      89              1.0000000000
       444        89  DCM       CL1            -3.1688155974       -2.4236899799        0.0090135975  CLST      89              1.0000000000
       445        89  DCM       CL2            -0.6893590308       -3.6127300243       -0.9737461721  CLST      89              1.0000000000
       446        90  DCM       C              -3.3731146823        2.4376832828        1.0388039764  CLST      90              1.0000000000
       447        90  DCM       H1             -3.4316537409        3.5092485018        1.3270064667  CLST      90              1.0000000000
       448        90  DCM       H2             -4.1891481209        2.1662746894        0.3358071143  CLST      90              1.0000000000
       449        90  DCM       CL1            -1.8005577368        2.1358883695        0.2449982894  CLST      90              1.0000000000
       450        90  DCM       CL2            -3.5140652104        1.4332390281        2.5105816769  CLST      90              1.0000000000
       451        91  DCM       C              -1.2056952911        3.0569027991        2.2576060420  CLST      91              1.0000000000
       452        91  DCM       H1             -1.0832869167        2.9230961802        3.3532094037  CLST      91              1.0000000000
       453        91  DCM       H2             -2.2746672856        3.2011714094        1.9917585741  CLST      91              1.0000000000
       454        91  DCM       CL1            -0.2789047539        4.4938988407        1.7367001261  CLST      91              1.0000000000
       455        91  DCM       CL2            -0.5899417235        1.6017691352        1.4244406783  CLST      91              1.0000000000
       456        92  DCM       C               1.5319402497        1.8783652383       -3.5536630315  CLST      92              1.0000000000
       457        92  DCM       H1              1.0396656380        0.9475851168       -3.2005135885  CLST      92              1.0000000000
       458        92  DCM       H2              0.9640653963        2.7779675006       -3.2348094735  CLST      92              1.0000000000
       459        92  DCM       CL1             3.1812980697        1.9591916369       -2.8679753707  CLST      92              1.0000000000
       460        92  DCM       CL2             1.6176862551        1.8485804846       -5.3393766070  CLST      92              1.0000000000
       461        93  DCM       C              -1.8744097084        0.4169697184        1.4191837674  CLST      93              1.0000000000
       462        93  DCM       H1             -0.8098268405        0.4435779615        1.1058779008  CLST      93              1.0000000000
       463        93  DCM       H2             -2.4985201191        1.0506497242        0.7552154683  CLST      93              1.0000000000
       464        93  DCM       CL1            -2.4656391774       -1.2682680460        1.3385728438  CLST      93              1.0000000000
       465        93  DCM       CL2            -2.0056979060        1.0310651386        3.0926462640  CLST      93              1.0000000000
       466        94  DCM       C              -2.4360621722        0.5145479771       -3.1105843689  CLST      94              1.0000000000
       467        94  DCM       H1             -2.2828513312       -0.3707492639       -2.4581130169  CLST      94              1.0000000000
       468        94  DCM       H2             -1.4716955094        0.8775748534       -3.5220486865  CLST      94              1.0000000000
       469        94  DCM       CL1            -3.5130224247        0.0616074389       -4.4622861701  CLST      94              1.0000000000
       470        94  DCM       CL2            -3.1813467500        1.8229909418       -2.1479053173  CLST      94              1.0000000000
       471        95  DCM       C               1.3966085261       -2.7772806375        1.6992059649  CLST      95              1.0000000000
       472        95  DCM       H1              0.8741252981       -1.8176141055        1.5020707698  CLST      95              1.0000000000
       473        95  DCM       H2              2.4969852097       -2.6502057908        1.6318759972  CLST      95              1.0000000000
       474        95  DCM       CL1             0.9723302119       -3.3375352604        3.3413541998  CLST      95              1.0000000000
       475        95  DCM       CL2             0.8836169865       -3.9952651134        0.4962488499  CLST      95              1.0000000000
