* CHARMM CGENFF SD/ABNR BEFORE MLPOT (MM ONLY)
*  DATE:     6/28/26      2: 3:50      CREATED BY USER: boittier
*
       475  EXT
         1         1  DCM       C              -2.2240660078        3.7640118558        1.2221508295  CLST      1               1.0000000000
         2         1  DCM       H1             -2.1393843959        3.5686981589        2.3122313284  CLST      1               1.0000000000
         3         1  DCM       H2             -3.2832885423        3.7221314468        0.8893217079  CLST      1               1.0000000000
         4         1  DCM       CL1            -1.5809829017        5.3878326086        0.8688956197  CLST      1               1.0000000000
         5         1  DCM       CL2            -1.2714566145        2.5462268852        0.3261308218  CLST      1               1.0000000000
         6         2  DCM       C             -10.3745826306        0.8899611724        6.9270416312  CLST      2               1.0000000000
         7         2  DCM       H1             -9.5450006114        1.6272943526        6.8865727594  CLST      2               1.0000000000
         8         2  DCM       H2            -10.8859648411        0.9199191843        7.9118777583  CLST      2               1.0000000000
         9         2  DCM       CL1            -9.7107075612       -0.7476554305        6.6682826454  CLST      2               1.0000000000
        10         2  DCM       CL2           -11.5560958842        1.2698953648        5.6403878134  CLST      2               1.0000000000
        11         3  DCM       C               5.7375559460       -5.5378284099        7.5277112296  CLST      3               1.0000000000
        12         3  DCM       H1              6.5685992032       -6.2594468823        7.6749617020  CLST      3               1.0000000000
        13         3  DCM       H2              6.0631924234       -4.5050290681        7.7656830699  CLST      3               1.0000000000
        14         3  DCM       CL1             5.2001578699       -5.6002355872        5.8236901631  CLST      3               1.0000000000
        15         3  DCM       CL2             4.3880031959       -5.9760821900        8.6119574802  CLST      3               1.0000000000
        16         4  DCM       C              -5.5502263728        8.0216274788        1.5351135020  CLST      4               1.0000000000
        17         4  DCM       H1             -6.0836677903        7.1307250321        1.9267792888  CLST      4               1.0000000000
        18         4  DCM       H2             -4.9643705883        8.5200947006        2.3349289668  CLST      4               1.0000000000
        19         4  DCM       CL1            -4.4380731733        7.5083607382        0.2356294221  CLST      4               1.0000000000
        20         4  DCM       CL2            -6.7452259794        9.1804057044        0.8872521157  CLST      4               1.0000000000
        21         5  DCM       C               7.1392249651       -8.6808409525      -10.2693837156  CLST      5               1.0000000000
        22         5  DCM       H1              6.2791722367       -8.8584102147      -10.9488070919  CLST      5               1.0000000000
        23         5  DCM       H2              8.0521767495       -9.1957727419      -10.6361484977  CLST      5               1.0000000000
        24         5  DCM       CL1             6.7342811378       -9.3041898671       -8.6432428811  CLST      5               1.0000000000
        25         5  DCM       CL2             7.4587686923       -6.9237403142      -10.1848627570  CLST      5               1.0000000000
        26         6  DCM       C              -2.9007364342        8.4082505793       -8.3484169204  CLST      6               1.0000000000
        27         6  DCM       H1             -3.7355009308        8.7667900497       -7.7091833215  CLST      6               1.0000000000
        28         6  DCM       H2             -2.3522133577        9.2603045554       -8.8027567799  CLST      6               1.0000000000
        29         6  DCM       CL1            -1.7670943380        7.4522988203       -7.3494393020  CLST      6               1.0000000000
        30         6  DCM       CL2            -3.5637434153        7.3860695271       -9.6565281794  CLST      6               1.0000000000
        31         7  DCM       C               6.1204007083        3.9475146443       -8.3918571028  CLST      7               1.0000000000
        32         7  DCM       H1              5.8112217731        3.0666998690       -7.7901994656  CLST      7               1.0000000000
        33         7  DCM       H2              6.7107350257        3.6355216805       -9.2796021993  CLST      7               1.0000000000
        34         7  DCM       CL1             4.6579183880        4.8191944337       -8.9390523205  CLST      7               1.0000000000
        35         7  DCM       CL2             7.1225317450        5.0199825554       -7.3712193102  CLST      7               1.0000000000
        36         8  DCM       C               4.2772023890       10.6139704808        7.5011304394  CLST      8               1.0000000000
        37         8  DCM       H1              4.3102949399       11.5036462991        8.1651612252  CLST      8               1.0000000000
        38         8  DCM       H2              4.4585518622        9.6810536625        8.0757304025  CLST      8               1.0000000000
        39         8  DCM       CL1             2.6670639799       10.5207367964        6.7294364407  CLST      8               1.0000000000
        40         8  DCM       CL2             5.5401358208       10.7787006077        6.2474565727  CLST      8               1.0000000000
        41         9  DCM       C               1.0463001902        3.6898393759        3.3625778390  CLST      9               1.0000000000
        42         9  DCM       H1              0.6932397004        3.9879638917        2.3556019777  CLST      9               1.0000000000
        43         9  DCM       H2              1.2421529492        2.5995913171        3.4143761965  CLST      9               1.0000000000
        44         9  DCM       CL1             2.5513223810        4.5760087076        3.7237805920  CLST      9               1.0000000000
        45         9  DCM       CL2            -0.1961732865        4.1184084488        4.5710683051  CLST      9               1.0000000000
        46        10  DCM       C               9.4142759305        2.8975156030       10.2419237451  CLST      10              1.0000000000
        47        10  DCM       H1              8.4373936380        3.3461263156       10.5185519875  CLST      10              1.0000000000
        48        10  DCM       H2              9.2968778680        2.1729237196        9.4093134166  CLST      10              1.0000000000
        49        10  DCM       CL1            10.5292980053        4.1950091761        9.7267043899  CLST      10              1.0000000000
        50        10  DCM       CL2            10.0831691936        2.0553103595       11.6691023815  CLST      10              1.0000000000
        51        11  DCM       C               8.5691087162        8.3792485750       -5.8337988456  CLST      11              1.0000000000
        52        11  DCM       H1              9.0160165683        8.4395939872       -4.8190706318  CLST      11              1.0000000000
        53        11  DCM       H2              8.9338003083        7.4769267804       -6.3705625744  CLST      11              1.0000000000
        54        11  DCM       CL1             6.7871884095        8.2920764286       -5.6832456784  CLST      11              1.0000000000
        55        11  DCM       CL2             9.0316179265        9.8391213693       -6.7595257252  CLST      11              1.0000000000
        56        12  DCM       C               7.1940268276       -3.0315851891       10.4911484371  CLST      12              1.0000000000
        57        12  DCM       H1              7.5483836090       -2.4448514751        9.6145948317  CLST      12              1.0000000000
        58        12  DCM       H2              7.5793709615       -2.6022747197       11.4401053347  CLST      12              1.0000000000
        59        12  DCM       CL1             5.4072942999       -3.0102210373       10.5254164771  CLST      12              1.0000000000
        60        12  DCM       CL2             7.7790077083       -4.7125663502       10.3343043639  CLST      12              1.0000000000
        61        13  DCM       C              -3.2784288681       -8.4833030899        4.9321753614  CLST      13              1.0000000000
        62        13  DCM       H1             -2.9159379293       -9.2298786935        4.1947946530  CLST      13              1.0000000000
        63        13  DCM       H2             -3.5490525370       -8.9690352066        5.8934477855  CLST      13              1.0000000000
        64        13  DCM       CL1            -1.9887616394       -7.2832361481        5.2304050182  CLST      13              1.0000000000
        65        13  DCM       CL2            -4.7207635487       -7.6694476800        4.2642921280  CLST      13              1.0000000000
        66        14  DCM       C              -8.7994476604        5.7613681161       -5.7021047768  CLST      14              1.0000000000
        67        14  DCM       H1             -9.1338153979        5.5183132439       -4.6728591297  CLST      14              1.0000000000
        68        14  DCM       H2             -9.2465513831        6.7144882176       -6.0539863279  CLST      14              1.0000000000
        69        14  DCM       CL1            -7.0199124763        5.9135066719       -5.7129665838  CLST      14              1.0000000000
        70        14  DCM       CL2            -9.2959243241        4.4453539617       -6.8039543649  CLST      14              1.0000000000
        71        15  DCM       C              -6.6231431208        3.6554472055        1.2726534515  CLST      15              1.0000000000
        72        15  DCM       H1             -7.7154487230        3.7538817358        1.4576928899  CLST      15              1.0000000000
        73        15  DCM       H2             -6.3460529250        2.5950432843        1.0961971303  CLST      15              1.0000000000
        74        15  DCM       CL1            -6.1936941292        4.6078262354       -0.1705957568  CLST      15              1.0000000000
        75        15  DCM       CL2            -5.7250767170        4.2791396962        2.6856070095  CLST      15              1.0000000000
        76        16  DCM       C               7.1326651798        0.1818631431        1.2349365022  CLST      16              1.0000000000
        77        16  DCM       H1              6.1399080107       -0.2053399744        1.5479926693  CLST      16              1.0000000000
        78        16  DCM       H2              7.6292533750       -0.5165564190        0.5292349114  CLST      16              1.0000000000
        79        16  DCM       CL1             6.9107388642        1.7608408866        0.4280194483  CLST      16              1.0000000000
        80        16  DCM       CL2             8.1672201834        0.3832537510        2.6801164854  CLST      16              1.0000000000
        81        17  DCM       C               3.1052221797        8.9641745140       -6.1705172605  CLST      17              1.0000000000
        82        17  DCM       H1              3.0447575095       10.0712020171       -6.2389092423  CLST      17              1.0000000000
        83        17  DCM       H2              3.7339974726        8.6513460952       -5.3101803213  CLST      17              1.0000000000
        84        17  DCM       CL1             1.4575332243        8.3038555351       -5.9573283405  CLST      17              1.0000000000
        85        17  DCM       CL2             3.8233583661        8.3278383914       -7.6796131816  CLST      17              1.0000000000
        86        18  DCM       C              -4.3163245571        8.3896066534       -4.4706964702  CLST      18              1.0000000000
        87        18  DCM       H1             -4.4670014346        8.1639705033       -3.3927099470  CLST      18              1.0000000000
        88        18  DCM       H2             -4.1427827822        7.4596385864       -5.0523313693  CLST      18              1.0000000000
        89        18  DCM       CL1            -5.7759897294        9.2024892964       -5.1004949458  CLST      18              1.0000000000
        90        18  DCM       CL2            -2.9040422724        9.4711477990       -4.6527391486  CLST      18              1.0000000000
        91        19  DCM       C               0.1722089740        8.6142722329        4.4145017661  CLST      19              1.0000000000
        92        19  DCM       H1             -0.7516651179        9.1934618314        4.2098700663  CLST      19              1.0000000000
        93        19  DCM       H2              1.0417442186        9.2899726340        4.5548046800  CLST      19              1.0000000000
        94        19  DCM       CL1            -0.0666853282        7.6451301543        5.8970455596  CLST      19              1.0000000000
        95        19  DCM       CL2             0.5034914702        7.5311782934        3.0341295363  CLST      19              1.0000000000
        96        20  DCM       C               6.4529853196       -0.9155900703        5.5768177096  CLST      20              1.0000000000
        97        20  DCM       H1              7.5532399553       -0.8915550959        5.4260689329  CLST      20              1.0000000000
        98        20  DCM       H2              6.0320120426        0.1110459888        5.6080348599  CLST      20              1.0000000000
        99        20  DCM       CL1             5.6964039074       -1.8234609349        4.2348638812  CLST      20              1.0000000000
       100        20  DCM       CL2             6.1015454762       -1.7296510599        7.1252890013  CLST      20              1.0000000000
       101        21  DCM       C              -7.7862676643       -2.7918144989       -8.3948188336  CLST      21              1.0000000000
       102        21  DCM       H1             -7.5533296001       -3.8652553692       -8.2299672138  CLST      21              1.0000000000
       103        21  DCM       H2             -6.8793465975       -2.1621051985       -8.2697341889  CLST      21              1.0000000000
       104        21  DCM       CL1            -8.4118294279       -2.5806094453      -10.0553403573  CLST      21              1.0000000000
       105        21  DCM       CL2            -9.0215751182       -2.2753005986       -7.2111301414  CLST      21              1.0000000000
       106        22  DCM       C               4.6766693209       -9.0932993279        6.4006706279  CLST      22              1.0000000000
       107        22  DCM       H1              4.0482716224       -8.2383158767        6.7236375600  CLST      22              1.0000000000
       108        22  DCM       H2              5.1623627073       -8.8827568695        5.4248413732  CLST      22              1.0000000000
       109        22  DCM       CL1             5.9385664591       -9.3774534645        7.6345660055  CLST      22              1.0000000000
       110        22  DCM       CL2             3.6415161743      -10.5412578574        6.2404129919  CLST      22              1.0000000000
       111        23  DCM       C              -7.9515141692        1.2329685851       -8.5003508369  CLST      23              1.0000000000
       112        23  DCM       H1             -8.0765490417        0.6234816346       -7.5814256936  CLST      23              1.0000000000
       113        23  DCM       H2             -7.8253362321        2.3069289416       -8.2509927128  CLST      23              1.0000000000
       114        23  DCM       CL1            -6.5027059895        0.6661959457       -9.3806367136  CLST      23              1.0000000000
       115        23  DCM       CL2            -9.4040382455        1.0392485268       -9.5225873444  CLST      23              1.0000000000
       116        24  DCM       C              -7.7067344300        7.0633049593       -9.2225521096  CLST      24              1.0000000000
       117        24  DCM       H1             -7.5085978220        6.0967029745       -8.7138071745  CLST      24              1.0000000000
       118        24  DCM       H2             -7.4335989718        7.0106586979      -10.2979561040  CLST      24              1.0000000000
       119        24  DCM       CL1            -9.4457361771        7.4506368724       -9.0790524009  CLST      24              1.0000000000
       120        24  DCM       CL2            -6.7392622689        8.3439280705       -8.4378070763  CLST      24              1.0000000000
       121        25  DCM       C              -9.8426142491       -0.0917675045       -4.3746905032  CLST      25              1.0000000000
       122        25  DCM       H1            -10.1879534939       -1.0580916677       -4.7967768079  CLST      25              1.0000000000
       123        25  DCM       H2             -8.7515392330       -0.1132305316       -4.1663973027  CLST      25              1.0000000000
       124        25  DCM       CL1           -10.1868509103        1.2046576023       -5.5538511065  CLST      25              1.0000000000
       125        25  DCM       CL2           -10.7286168728        0.2182853843       -2.8529280191  CLST      25              1.0000000000
       126        26  DCM       C              10.6506387691        9.9504338354        0.3788012694  CLST      26              1.0000000000
       127        26  DCM       H1              9.9132261334        9.3129551268       -0.1521067201  CLST      26              1.0000000000
       128        26  DCM       H2             11.5058164421       10.2050425316       -0.2816199959  CLST      26              1.0000000000
       129        26  DCM       CL1             9.8435394790       11.4594096448        0.8957368258  CLST      26              1.0000000000
       130        26  DCM       CL2            11.2644297167        9.0677258876        1.8072490201  CLST      26              1.0000000000
       131        27  DCM       C              -8.3953615687        3.2836159456       -2.6645327098  CLST      27              1.0000000000
       132        27  DCM       H1             -8.9100147020        3.0126287800       -3.6118821729  CLST      27              1.0000000000
       133        27  DCM       H2             -7.5681532112        3.9982682210       -2.8518934665  CLST      27              1.0000000000
       134        27  DCM       CL1            -9.5807098660        4.0341794025       -1.5591134364  CLST      27              1.0000000000
       135        27  DCM       CL2            -7.7263767078        1.8035669514       -1.9177154334  CLST      27              1.0000000000
       136        28  DCM       C              -7.5413688455       -5.8773454610        6.2053642235  CLST      28              1.0000000000
       137        28  DCM       H1             -6.4624130285       -6.1219637512        6.2967298093  CLST      28              1.0000000000
       138        28  DCM       H2             -8.1613493783       -6.5706959748        6.8116059998  CLST      28              1.0000000000
       139        28  DCM       CL1            -7.8062775414       -4.2051819662        6.7802036562  CLST      28              1.0000000000
       140        28  DCM       CL2            -8.0206116609       -6.0168599580        4.4884317634  CLST      28              1.0000000000
       141        29  DCM       C             -12.1268867014      -11.8326135050        1.8747797277  CLST      29              1.0000000000
       142        29  DCM       H1            -13.2224354967      -11.8948610053        2.0461399675  CLST      29              1.0000000000
       143        29  DCM       H2            -11.6778723214      -12.8441773920        1.7819142616  CLST      29              1.0000000000
       144        29  DCM       CL1           -11.8256052938      -10.9227714106        0.3652127852  CLST      29              1.0000000000
       145        29  DCM       CL2           -11.3700424660      -10.9851111716        3.2555103152  CLST      29              1.0000000000
       146        30  DCM       C              10.1907284699        3.4202367489        2.0861372019  CLST      30              1.0000000000
       147        30  DCM       H1              9.1712089147        3.1855187686        2.4571169680  CLST      30              1.0000000000
       148        30  DCM       H2             10.3758555576        4.5151000566        2.0974940546  CLST      30              1.0000000000
       149        30  DCM       CL1            11.3926699594        2.6190735028        3.1377201642  CLST      30              1.0000000000
       150        30  DCM       CL2            10.3569639585        2.8166602578        0.4110415929  CLST      30              1.0000000000
       151        31  DCM       C              -7.7134860938       -0.4280356293        9.7689333119  CLST      31              1.0000000000
       152        31  DCM       H1             -7.4517371005       -0.7938303797        8.7538761222  CLST      31              1.0000000000
       153        31  DCM       H2             -6.8943478744       -0.6371609985       10.4888274341  CLST      31              1.0000000000
       154        31  DCM       CL1            -7.9977177264        1.3364061154        9.7036025525  CLST      31              1.0000000000
       155        31  DCM       CL2            -9.1971909956       -1.2604114115       10.3148791312  CLST      31              1.0000000000
       156        32  DCM       C              -8.2938333773       -2.6852676952       -1.9572473103  CLST      32              1.0000000000
       157        32  DCM       H1             -8.9473033179       -1.9397468293       -1.4557544052  CLST      32              1.0000000000
       158        32  DCM       H2             -7.9928512987       -3.4925155702       -1.2550986709  CLST      32              1.0000000000
       159        32  DCM       CL1            -9.1673385275       -3.4182778884       -3.3331343402  CLST      32              1.0000000000
       160        32  DCM       CL2            -6.8211115685       -1.8651430024       -2.5463865266  CLST      32              1.0000000000
       161        33  DCM       C              -0.4528632360      -10.3078883321        9.2530996647  CLST      33              1.0000000000
       162        33  DCM       H1              0.1414003509       -9.4521649872        9.6387607004  CLST      33              1.0000000000
       163        33  DCM       H2             -0.8590907633      -10.9193041039       10.0856947089  CLST      33              1.0000000000
       164        33  DCM       CL1            -1.8084794068       -9.6791501028        8.2711745970  CLST      33              1.0000000000
       165        33  DCM       CL2             0.6007450372      -11.3369772742        8.2401704060  CLST      33              1.0000000000
       166        34  DCM       C              -1.5095144825        9.3646794219        0.6372263072  CLST      34              1.0000000000
       167        34  DCM       H1             -2.0946966098        9.5356844254       -0.2903193166  CLST      34              1.0000000000
       168        34  DCM       H2             -1.3851448890        8.2790512802        0.8337017129  CLST      34              1.0000000000
       169        34  DCM       CL1             0.1032051817       10.1098935949        0.4485435610  CLST      34              1.0000000000
       170        34  DCM       CL2            -2.3725693641       10.1103519861        2.0138649793  CLST      34              1.0000000000
       171        35  DCM       C               9.5990856613        4.2715531796        5.9280126214  CLST      35              1.0000000000
       172        35  DCM       H1             10.6445167620        4.2703495291        5.5534214033  CLST      35              1.0000000000
       173        35  DCM       H2              9.5533604503        4.6472220308        6.9709033496  CLST      35              1.0000000000
       174        35  DCM       CL1             8.9621863350        2.6014678353        5.8866754987  CLST      35              1.0000000000
       175        35  DCM       CL2             8.6040724603        5.3306022854        4.8857507525  CLST      35              1.0000000000
       176        36  DCM       C               4.0834968706        9.1288054443        3.4163944352  CLST      36              1.0000000000
       177        36  DCM       H1              5.1069541430        9.5346486362        3.5617864073  CLST      36              1.0000000000
       178        36  DCM       H2              3.5791662555        8.9640820000        4.3905918151  CLST      36              1.0000000000
       179        36  DCM       CL1             4.1816205342        7.5667786354        2.5543557158  CLST      36              1.0000000000
       180        36  DCM       CL2             3.1284591840       10.2999032236        2.4654969549  CLST      36              1.0000000000
       181        37  DCM       C               6.5225385998       10.1041407970       -2.6768746433  CLST      37              1.0000000000
       182        37  DCM       H1              6.8874025331       10.6086799043       -3.5964529675  CLST      37              1.0000000000
       183        37  DCM       H2              5.5653173751        9.5761965064       -2.8692773413  CLST      37              1.0000000000
       184        37  DCM       CL1             7.7421276124        8.9122154816       -2.1433762813  CLST      37              1.0000000000
       185        37  DCM       CL2             6.2710402654       11.3271388791       -1.3978875555  CLST      37              1.0000000000
       186        38  DCM       C              -2.0466872833       -2.2399111470       -0.3084536632  CLST      38              1.0000000000
       187        38  DCM       H1             -3.1116595356       -2.4281880826       -0.0545692173  CLST      38              1.0000000000
       188        38  DCM       H2             -1.6061324498       -3.1063414318       -0.8482988360  CLST      38              1.0000000000
       189        38  DCM       CL1            -1.9396927156       -0.7880648115       -1.3459193663  CLST      38              1.0000000000
       190        38  DCM       CL2            -1.1288453531       -1.9690769068        1.1994782135  CLST      38              1.0000000000
       191        39  DCM       C              -3.3674905952       -2.5974896695        8.6654402229  CLST      39              1.0000000000
       192        39  DCM       H1             -3.2021875629       -1.6016394971        8.2029504101  CLST      39              1.0000000000
       193        39  DCM       H2             -3.0039085617       -3.4091977596        8.0045325866  CLST      39              1.0000000000
       194        39  DCM       CL1            -2.4802622014       -2.6747076884       10.2186516281  CLST      39              1.0000000000
       195        39  DCM       CL2            -5.1167814196       -2.8356469697        8.9552219306  CLST      39              1.0000000000
       196        40  DCM       C               2.4478833558       -0.7598306243        2.2541040418  CLST      40              1.0000000000
       197        40  DCM       H1              3.5459479862       -0.8209033553        2.0955114838  CLST      40              1.0000000000
       198        40  DCM       H2              1.9425756377       -1.6849268822        1.9084521824  CLST      40              1.0000000000
       199        40  DCM       CL1             2.1229986541       -0.5418824770        3.9960586054  CLST      40              1.0000000000
       200        40  DCM       CL2             1.8043891469        0.6359378776        1.3428018172  CLST      40              1.0000000000
       201        41  DCM       C               6.5106188216       -0.2108624717       -5.9771509094  CLST      41              1.0000000000
       202        41  DCM       H1              7.0736151969       -1.1006674251       -5.6272001588  CLST      41              1.0000000000
       203        41  DCM       H2              5.6301429285       -0.5139953604       -6.5815882128  CLST      41              1.0000000000
       204        41  DCM       CL1             5.9537554174        0.7143190442       -4.5544523622  CLST      41              1.0000000000
       205        41  DCM       CL2             7.5869651077        0.8093853740       -6.9752250338  CLST      41              1.0000000000
       206        42  DCM       C              -4.2465316437        0.4936579368        1.3131798077  CLST      42              1.0000000000
       207        42  DCM       H1             -3.9719927174        1.4603070254        0.8493056268  CLST      42              1.0000000000
       208        42  DCM       H2             -3.3552327321       -0.1496626609        1.4511451056  CLST      42              1.0000000000
       209        42  DCM       CL1            -4.9857045591        0.8008156768        2.9070626796  CLST      42              1.0000000000
       210        42  DCM       CL2            -5.4184811482       -0.3397467932        0.2559751623  CLST      42              1.0000000000
       211        43  DCM       C              -3.3261445649        1.8226807596       10.7028696999  CLST      43              1.0000000000
       212        43  DCM       H1             -2.5707814891        2.1642672158       11.4397095396  CLST      43              1.0000000000
       213        43  DCM       H2             -2.8497815343        1.5456237618        9.7392601422  CLST      43              1.0000000000
       214        43  DCM       CL1            -4.1683506775        0.3878975388       11.3549520167  CLST      43              1.0000000000
       215        43  DCM       CL2            -4.5025912267        3.1404200933       10.4167843059  CLST      43              1.0000000000
       216        44  DCM       C               3.1012075047       -3.0929781212       -5.4542241171  CLST      44              1.0000000000
       217        44  DCM       H1              2.8984431399       -4.1516581951       -5.1861091945  CLST      44              1.0000000000
       218        44  DCM       H2              2.1750122103       -2.4826816071       -5.3980385945  CLST      44              1.0000000000
       219        44  DCM       CL1             4.3038246166       -2.4241613615       -4.3147689272  CLST      44              1.0000000000
       220        44  DCM       CL2             3.7448820684       -3.0247703064       -7.1199009112  CLST      44              1.0000000000
       221        45  DCM       C               5.5888390938        0.7867720330        9.8594748120  CLST      45              1.0000000000
       222        45  DCM       H1              5.1665175116       -0.1812670950        9.5179197261  CLST      45              1.0000000000
       223        45  DCM       H2              4.7801294092        1.4866765131       10.1587923576  CLST      45              1.0000000000
       224        45  DCM       CL1             6.6638862148        0.4983679814       11.2567286601  CLST      45              1.0000000000
       225        45  DCM       CL2             6.5269266891        1.5154811872        8.5261895007  CLST      45              1.0000000000
       226        46  DCM       C               1.0833162528        7.9654482924       -9.7939445302  CLST      46              1.0000000000
       227        46  DCM       H1              1.1814435337        7.4061182599       -8.8406449915  CLST      46              1.0000000000
       228        46  DCM       H2              2.0493371190        7.9927738404      -10.3410457990  CLST      46              1.0000000000
       229        46  DCM       CL1            -0.1427994962        7.1577115732      -10.8133225681  CLST      46              1.0000000000
       230        46  DCM       CL2             0.5718297964        9.6396694616       -9.4290640620  CLST      46              1.0000000000
       231        47  DCM       C               1.6974534746       -2.3329777099       -0.9624516394  CLST      47              1.0000000000
       232        47  DCM       H1              1.4943726828       -1.2446037028       -0.8783986478  CLST      47              1.0000000000
       233        47  DCM       H2              1.1917996526       -2.8977868909       -0.1535733831  CLST      47              1.0000000000
       234        47  DCM       CL1             1.0890308850       -2.9142434656       -2.5382522131  CLST      47              1.0000000000
       235        47  DCM       CL2             3.4569853524       -2.6172202380       -0.8345774759  CLST      47              1.0000000000
       236        48  DCM       C              -9.3297173912       -3.1125309954        2.0460306141  CLST      48              1.0000000000
       237        48  DCM       H1             -9.9672494948       -2.3714775763        1.5172649395  CLST      48              1.0000000000
       238        48  DCM       H2             -9.6532048910       -4.1499131048        1.8165759441  CLST      48              1.0000000000
       239        48  DCM       CL1            -7.6319680307       -2.8981217223        1.5298800700  CLST      48              1.0000000000
       240        48  DCM       CL2            -9.4628137508       -2.8433454239        3.8063802558  CLST      48              1.0000000000
       241        49  DCM       C               1.4861187877       -6.4599975489        6.1752096738  CLST      49              1.0000000000
       242        49  DCM       H1              2.2842703032       -5.7831352983        6.5421769776  CLST      49              1.0000000000
       243        49  DCM       H2              0.5222373825       -5.9204423913        6.0781798271  CLST      49              1.0000000000
       244        49  DCM       CL1             1.9609339525       -7.1124537445        4.5808582112  CLST      49              1.0000000000
       245        49  DCM       CL2             1.2823682022       -7.7966006735        7.3389949849  CLST      49              1.0000000000
       246        50  DCM       C               2.1694006830        2.0607223648        6.5882645817  CLST      50              1.0000000000
       247        50  DCM       H1              1.1790147986        1.5787109555        6.4584128337  CLST      50              1.0000000000
       248        50  DCM       H2              2.5118435745        2.5309053423        5.6440023149  CLST      50              1.0000000000
       249        50  DCM       CL1             2.0488337659        3.3151184319        7.8545936997  CLST      50              1.0000000000
       250        50  DCM       CL2             3.3627869796        0.8236865247        7.0673993977  CLST      50              1.0000000000
       251        51  DCM       C               2.4265611015       -2.4119879516        8.0862319497  CLST      51              1.0000000000
       252        51  DCM       H1              1.7126518634       -1.5757574855        7.9450116861  CLST      51              1.0000000000
       253        51  DCM       H2              3.3306854768       -2.0772204036        8.6351516603  CLST      51              1.0000000000
       254        51  DCM       CL1             2.9120007056       -3.0126592786        6.4779395410  CLST      51              1.0000000000
       255        51  DCM       CL2             1.6223820356       -3.7134378665        9.0105862473  CLST      51              1.0000000000
       256        52  DCM       C              -7.2098733075      -12.3286894803       -4.3603789607  CLST      52              1.0000000000
       257        52  DCM       H1             -7.4386114738      -13.4132368166       -4.4315988048  CLST      52              1.0000000000
       258        52  DCM       H2             -6.3947915455      -12.0462934148       -5.0597493809  CLST      52              1.0000000000
       259        52  DCM       CL1            -8.6792784079      -11.3967634052       -4.7723432692  CLST      52              1.0000000000
       260        52  DCM       CL2            -6.6999576862      -11.9503309711       -2.6892375441  CLST      52              1.0000000000
       261        53  DCM       C              -3.8276141924        4.5821893595       -7.4675395242  CLST      53              1.0000000000
       262        53  DCM       H1             -3.0564413618        4.8389106266       -8.2243494600  CLST      53              1.0000000000
       263        53  DCM       H2             -4.0866123527        5.4624559522       -6.8405790768  CLST      53              1.0000000000
       264        53  DCM       CL1            -5.2982825063        4.0238245615       -8.3144254660  CLST      53              1.0000000000
       265        53  DCM       CL2            -3.1917082246        3.2839101297       -6.4167000813  CLST      53              1.0000000000
       266        54  DCM       C               3.4180089304        8.7416973810       -0.7585543715  CLST      54              1.0000000000
       267        54  DCM       H1              2.6715060736        8.4580013597        0.0148330884  CLST      54              1.0000000000
       268        54  DCM       H2              3.9706533381        9.6558329114       -0.4546886372  CLST      54              1.0000000000
       269        54  DCM       CL1             2.5665329125        9.0545276300       -2.2986703805  CLST      54              1.0000000000
       270        54  DCM       CL2             4.5888108170        7.4067707402       -0.9706957544  CLST      54              1.0000000000
       271        55  DCM       C              10.1448131015       -8.5573588071       -7.2896002101  CLST      55              1.0000000000
       272        55  DCM       H1             11.0349404802       -8.6886989272       -6.6381210404  CLST      55              1.0000000000
       273        55  DCM       H2              9.3664960274       -9.3158110655       -7.0609177166  CLST      55              1.0000000000
       274        55  DCM       CL1             9.4635602733       -6.9271120625       -7.0215214501  CLST      55              1.0000000000
       275        55  DCM       CL2            10.6414529347       -8.7324054589       -8.9976058172  CLST      55              1.0000000000
       276        56  DCM       C               6.2760914286       -5.4694228054       -5.4245391819  CLST      56              1.0000000000
       277        56  DCM       H1              6.2887060425       -4.3605013113       -5.4749236237  CLST      56              1.0000000000
       278        56  DCM       H2              7.2877864452       -5.8709312103       -5.2041530119  CLST      56              1.0000000000
       279        56  DCM       CL1             5.1531364468       -5.9825118953       -4.1319664023  CLST      56              1.0000000000
       280        56  DCM       CL2             5.7233143524       -6.1118637427       -6.9975515474  CLST      56              1.0000000000
       281        57  DCM       C              -0.8727214722       -3.6160671994        4.5243897244  CLST      57              1.0000000000
       282        57  DCM       H1             -1.4170841209       -2.7741584399        4.0481671680  CLST      57              1.0000000000
       283        57  DCM       H2             -1.4400691149       -4.5637252126        4.4198160930  CLST      57              1.0000000000
       284        57  DCM       CL1            -0.6563604415       -3.2592811353        6.2607747418  CLST      57              1.0000000000
       285        57  DCM       CL2             0.7193800161       -3.8014907943        3.7373730320  CLST      57              1.0000000000
       286        58  DCM       C              -5.5608041372        0.8259541469       -4.8654050721  CLST      58              1.0000000000
       287        58  DCM       H1             -4.4837120235        1.0569413486       -5.0015474915  CLST      58              1.0000000000
       288        58  DCM       H2             -5.7872673376        0.6058706648       -3.8021781780  CLST      58              1.0000000000
       289        58  DCM       CL1            -6.5319683372        2.2315914635       -5.3885361832  CLST      58              1.0000000000
       290        58  DCM       CL2            -5.9788553686       -0.6006264026       -5.8560889541  CLST      58              1.0000000000
       291        59  DCM       C              10.1862853356       -0.7337801846        9.4742428955  CLST      59              1.0000000000
       292        59  DCM       H1              9.3956148390       -0.5253583920       10.2251483977  CLST      59              1.0000000000
       293        59  DCM       H2             11.0577825835       -0.0596607900        9.6134465475  CLST      59              1.0000000000
       294        59  DCM       CL1            10.7272032417       -2.4272414242        9.6553801858  CLST      59              1.0000000000
       295        59  DCM       CL2             9.5124605348       -0.4812461439        7.8387475556  CLST      59              1.0000000000
       296        60  DCM       C              -8.5425302306        8.3932898732       -2.4695246458  CLST      60              1.0000000000
       297        60  DCM       H1             -8.3368069863        9.0627266106       -3.3308985815  CLST      60              1.0000000000
       298        60  DCM       H2             -8.6102859906        8.9716802755       -1.5244130264  CLST      60              1.0000000000
       299        60  DCM       CL1           -10.0906622205        7.5457314591       -2.7475394888  CLST      60              1.0000000000
       300        60  DCM       CL2            -7.2175349928        7.2036435559       -2.3320794207  CLST      60              1.0000000000
       301        61  DCM       C              -8.2749547487      -12.7666955659       -8.2404495949  CLST      61              1.0000000000
       302        61  DCM       H1             -9.0861677600      -12.1511830977       -7.7966278176  CLST      61              1.0000000000
       303        61  DCM       H2             -8.4795261078      -12.9876887069       -9.3094557188  CLST      61              1.0000000000
       304        61  DCM       CL1            -6.7323933401      -11.8712812293       -8.1160627143  CLST      61              1.0000000000
       305        61  DCM       CL2            -8.1555321073      -14.3069197273       -7.3403199943  CLST      61              1.0000000000
       306        62  DCM       C               2.4868000781        4.1207737824       -0.3410549295  CLST      62              1.0000000000
       307        62  DCM       H1              2.7371291533        4.1621315344       -1.4224783035  CLST      62              1.0000000000
       308        62  DCM       H2              1.7395225016        3.3286757236       -0.1317127848  CLST      62              1.0000000000
       309        62  DCM       CL1             3.9719814448        3.7816308347        0.5894881144  CLST      62              1.0000000000
       310        62  DCM       CL2             1.8118318471        5.6929036260        0.1674243065  CLST      62              1.0000000000
       311        63  DCM       C              -3.7010491439        7.6620515112        4.9854985492  CLST      63              1.0000000000
       312        63  DCM       H1             -3.6742319398        8.7018672041        4.5953850121  CLST      63              1.0000000000
       313        63  DCM       H2             -3.1647532562        7.5849364136        5.9551099090  CLST      63              1.0000000000
       314        63  DCM       CL1            -5.4008936130        7.1646570656        5.2152430232  CLST      63              1.0000000000
       315        63  DCM       CL2            -2.9220138526        6.5783227356        3.8015050292  CLST      63              1.0000000000
       316        64  DCM       C               0.1611868693       -0.2441150472       10.2334458347  CLST      64              1.0000000000
       317        64  DCM       H1             -0.4907994110        0.2268464497       10.9987484756  CLST      64              1.0000000000
       318        64  DCM       H2              0.2338615740       -1.3408397408       10.3922414434  CLST      64              1.0000000000
       319        64  DCM       CL1            -0.5272915579        0.0650553652        8.6118170080  CLST      64              1.0000000000
       320        64  DCM       CL2             1.7991707048        0.4649975461       10.3431834350  CLST      64              1.0000000000
       321        65  DCM       C               8.4804206759        8.4002216714        7.4369756403  CLST      65              1.0000000000
       322        65  DCM       H1              8.0140189143        7.8252548180        6.6095869751  CLST      65              1.0000000000
       323        65  DCM       H2              8.8497098868        9.3849350904        7.0799923186  CLST      65              1.0000000000
       324        65  DCM       CL1             7.2646415673        8.6672702966        8.7192348455  CLST      65              1.0000000000
       325        65  DCM       CL2             9.8550341976        7.4639892275        8.0904812057  CLST      65              1.0000000000
       326        66  DCM       C              -1.2481858563        0.3305277039        5.1321441947  CLST      66              1.0000000000
       327        66  DCM       H1             -0.4007272028       -0.3477727027        5.3617479188  CLST      66              1.0000000000
       328        66  DCM       H2             -1.2145791758        1.2451158146        5.7605500277  CLST      66              1.0000000000
       329        66  DCM       CL1            -1.1785606129        0.8058702689        3.4149845202  CLST      66              1.0000000000
       330        66  DCM       CL2            -2.7747025895       -0.5337140969        5.4455962132  CLST      66              1.0000000000
       331        67  DCM       C               9.8795537168       11.9727118438       -2.8294042413  CLST      67              1.0000000000
       332        67  DCM       H1              9.1756639554       11.7243208347       -2.0074886984  CLST      67              1.0000000000
       333        67  DCM       H2             10.6046157339       12.7510167780       -2.5107802479  CLST      67              1.0000000000
       334        67  DCM       CL1            10.7740971221       10.4960299890       -3.2951793568  CLST      67              1.0000000000
       335        67  DCM       CL2             8.9465789260       12.5834090281       -4.2267431780  CLST      67              1.0000000000
       336        68  DCM       C              -5.1377939536       -3.9120742509        3.9301243103  CLST      68              1.0000000000
       337        68  DCM       H1             -6.1443485825       -3.4974631021        4.1498246309  CLST      68              1.0000000000
       338        68  DCM       H2             -5.2156675722       -4.8776996392        3.3876335275  CLST      68              1.0000000000
       339        68  DCM       CL1            -4.2371380947       -2.7499209347        2.9175570353  CLST      68              1.0000000000
       340        68  DCM       CL2            -4.2658419271       -4.1729726907        5.4668548314  CLST      68              1.0000000000
       341        69  DCM       C              -9.4807313841        6.5975172866        1.0044822410  CLST      69              1.0000000000
       342        69  DCM       H1             -8.6366794852        6.5884759672        0.2833865180  CLST      69              1.0000000000
       343        69  DCM       H2            -10.2265049738        5.8084424076        0.7609453172  CLST      69              1.0000000000
       344        69  DCM       CL1            -8.8459774361        6.3077251495        2.6487990926  CLST      69              1.0000000000
       345        69  DCM       CL2           -10.2857244233        8.1911007049        0.9402320379  CLST      69              1.0000000000
       346        70  DCM       C               0.0299135319      -10.4623023094        4.7754382960  CLST      70              1.0000000000
       347        70  DCM       H1             -0.0320653813       -9.6468719728        5.5260669821  CLST      70              1.0000000000
       348        70  DCM       H2              0.9921879116      -11.0096714337        4.8618168908  CLST      70              1.0000000000
       349        70  DCM       CL1            -1.3162297292      -11.6056083461        5.0507623471  CLST      70              1.0000000000
       350        70  DCM       CL2            -0.0977813237       -9.7590952283        3.1369282285  CLST      70              1.0000000000
       351        71  DCM       C              -8.0624449374        4.9803576418        6.0500178057  CLST      71              1.0000000000
       352        71  DCM       H1             -7.7453807139        4.8151653473        4.9988881115  CLST      71              1.0000000000
       353        71  DCM       H2             -7.9341726605        6.0432324565        6.3429759697  CLST      71              1.0000000000
       354        71  DCM       CL1            -7.0666028006        3.9553573578        7.1226410000  CLST      71              1.0000000000
       355        71  DCM       CL2            -9.7867207117        4.5417144748        6.2163940150  CLST      71              1.0000000000
       356        72  DCM       C              -3.3821886754        3.8711516768       -2.4706791560  CLST      72              1.0000000000
       357        72  DCM       H1             -2.5181712024        3.6169628900       -3.1242652162  CLST      72              1.0000000000
       358        72  DCM       H2             -3.0597493531        4.4631408711       -1.5849300886  CLST      72              1.0000000000
       359        72  DCM       CL1            -4.1449829194        2.3508895777       -1.9215162318  CLST      72              1.0000000000
       360        72  DCM       CL2            -4.5604760124        4.8302431307       -3.4134349346  CLST      72              1.0000000000
       361        73  DCM       C              -5.3154451088       11.8816056476       -2.5992682713  CLST      73              1.0000000000
       362        73  DCM       H1             -5.0698019423       12.8928985559       -2.2105108546  CLST      73              1.0000000000
       363        73  DCM       H2             -4.9662026088       11.7586218803       -3.6466702651  CLST      73              1.0000000000
       364        73  DCM       CL1            -7.0875761324       11.6535390592       -2.5482398963  CLST      73              1.0000000000
       365        73  DCM       CL2            -4.5162561251       10.6560263761       -1.5717682285  CLST      73              1.0000000000
       366        74  DCM       C               3.6623428901      -10.6791878919       10.2299340864  CLST      74              1.0000000000
       367        74  DCM       H1              3.5833599286      -11.1006155625        9.2055311656  CLST      74              1.0000000000
       368        74  DCM       H2              4.7119013582      -10.7055571662       10.5917962870  CLST      74              1.0000000000
       369        74  DCM       CL1             3.1003905593       -8.9832025326       10.2052402472  CLST      74              1.0000000000
       370        74  DCM       CL2             2.6361156247      -11.6390156525       11.3356093067  CLST      74              1.0000000000
       371        75  DCM       C              -6.1846437470        0.6446644199        6.4224260955  CLST      75              1.0000000000
       372        75  DCM       H1             -7.1846965396        0.9317046974        6.8063147463  CLST      75              1.0000000000
       373        75  DCM       H2             -5.8764906956        1.3056995944        5.5869003939  CLST      75              1.0000000000
       374        75  DCM       CL1            -4.9909530643        0.7878421491        7.7422160766  CLST      75              1.0000000000
       375        75  DCM       CL2            -6.2512344844       -1.0429948016        5.8427873732  CLST      75              1.0000000000
       376        76  DCM       C              -3.0390959754       -6.3444039449        9.4169878033  CLST      76              1.0000000000
       377        76  DCM       H1             -3.3846755722       -5.5101338716       10.0629717122  CLST      76              1.0000000000
       378        76  DCM       H2             -2.9001871795       -7.2747369350       10.0057308617  CLST      76              1.0000000000
       379        76  DCM       CL1            -4.2612214270       -6.6379280788        8.1466533110  CLST      76              1.0000000000
       380        76  DCM       CL2            -1.4800937248       -5.8968267034        8.6655116524  CLST      76              1.0000000000
       381        77  DCM       C               7.8376499005        8.3743179112        2.9538010291  CLST      77              1.0000000000
       382        77  DCM       H1              8.7398541961        7.7656543359        2.7336685547  CLST      77              1.0000000000
       383        77  DCM       H2              7.0498160691        7.7551300758        3.4319046056  CLST      77              1.0000000000
       384        77  DCM       CL1             8.2853767539        9.7021644462        4.0606488364  CLST      77              1.0000000000
       385        77  DCM       CL2             7.2023173291        9.0482624665        1.4248260690  CLST      77              1.0000000000
       386        78  DCM       C               2.8407847757        1.2101573231       -8.1048699092  CLST      78              1.0000000000
       387        78  DCM       H1              1.9542873075        0.9435535732       -8.7189395293  CLST      78              1.0000000000
       388        78  DCM       H2              2.8808067823        2.3028223735       -7.9165466239  CLST      78              1.0000000000
       389        78  DCM       CL1             2.7421374760        0.3552292193       -6.5388378687  CLST      78              1.0000000000
       390        78  DCM       CL2             4.3231214689        0.7156784296       -8.9726987117  CLST      78              1.0000000000
       391        79  DCM       C              -9.0567676670       10.9298091155       -7.1721369691  CLST      79              1.0000000000
       392        79  DCM       H1             -9.9380540288       11.5972184159       -7.2701595272  CLST      79              1.0000000000
       393        79  DCM       H2             -8.8111420770       10.4499109145       -8.1434736175  CLST      79              1.0000000000
       394        79  DCM       CL1            -7.6541498186       11.8954556220       -6.6256449278  CLST      79              1.0000000000
       395        79  DCM       CL2            -9.4226888082        9.6581462733       -5.9698912326  CLST      79              1.0000000000
       396        80  DCM       C               5.5808499707       -9.5443554242       -5.2118656950  CLST      80              1.0000000000
       397        80  DCM       H1              5.5861625337      -10.5126907117       -5.7551435963  CLST      80              1.0000000000
       398        80  DCM       H2              5.1018239968       -8.7487399785       -5.8202317208  CLST      80              1.0000000000
       399        80  DCM       CL1             4.6676458987       -9.7355153344       -3.6872087719  CLST      80              1.0000000000
       400        80  DCM       CL2             7.2668735886       -9.0685670189       -4.8537445793  CLST      80              1.0000000000
       401        81  DCM       C               4.0290366762        5.4144266850       -5.3542934207  CLST      81              1.0000000000
       402        81  DCM       H1              3.5218437690        5.8494462831       -6.2394756480  CLST      81              1.0000000000
       403        81  DCM       H2              5.0863879364        5.7469665643       -5.2899181689  CLST      81              1.0000000000
       404        81  DCM       CL1             3.1705956722        5.9283010304       -3.8765369396  CLST      81              1.0000000000
       405        81  DCM       CL2             3.9768954601        3.6357907006       -5.4882365871  CLST      81              1.0000000000
       406        82  DCM       C               2.6245308161        0.8685217509       -2.9354863099  CLST      82              1.0000000000
       407        82  DCM       H1              2.5507564871       -0.1618067437       -3.3430318619  CLST      82              1.0000000000
       408        82  DCM       H2              2.9468506639        1.5856827930       -3.7191714923  CLST      82              1.0000000000
       409        82  DCM       CL1             1.0236772007        1.3663585741       -2.3157147251  CLST      82              1.0000000000
       410        82  DCM       CL2             3.8213201629        0.8832962664       -1.6090219595  CLST      82              1.0000000000
       411        83  DCM       C               7.2188476946        3.8685218487       -3.5768041653  CLST      83              1.0000000000
       412        83  DCM       H1              7.9905633653        3.1677774359       -3.1882495119  CLST      83              1.0000000000
       413        83  DCM       H2              6.8705305370        3.5596963200       -4.5848435955  CLST      83              1.0000000000
       414        83  DCM       CL1             5.8220403079        3.8731705438       -2.4616871421  CLST      83              1.0000000000
       415        83  DCM       CL2             7.9143305415        5.5125711150       -3.6799922081  CLST      83              1.0000000000
       416        84  DCM       C              -0.8699928652       -6.4590132069        1.6809132741  CLST      84              1.0000000000
       417        84  DCM       H1             -0.3659732645       -6.4696478124        2.6704979363  CLST      84              1.0000000000
       418        84  DCM       H2             -1.0039032062       -7.4905065568        1.2918447384  CLST      84              1.0000000000
       419        84  DCM       CL1            -2.4738503384       -5.6892613821        1.8496408571  CLST      84              1.0000000000
       420        84  DCM       CL2             0.1279447849       -5.5273424114        0.5274396234  CLST      84              1.0000000000
       421        85  DCM       C               5.5119179586        5.1113882373        9.3481189514  CLST      85              1.0000000000
       422        85  DCM       H1              4.7393532224        4.6249717188        8.7158180529  CLST      85              1.0000000000
       423        85  DCM       H2              5.2562164562        6.1724762328        9.5526652430  CLST      85              1.0000000000
       424        85  DCM       CL1             5.6297472249        4.2368266881       10.9012266208  CLST      85              1.0000000000
       425        85  DCM       CL2             7.0785851696        5.0507707114        8.4938645111  CLST      85              1.0000000000
       426        86  DCM       C               0.3478328656        4.5750993818       -6.2999185586  CLST      86              1.0000000000
       427        86  DCM       H1             -0.7108088777        4.9091693326       -6.3366689828  CLST      86              1.0000000000
       428        86  DCM       H2              0.9492082453        5.2304434701       -5.6348814653  CLST      86              1.0000000000
       429        86  DCM       CL1             0.4031513046        2.9029617879       -5.6763705749  CLST      86              1.0000000000
       430        86  DCM       CL2             1.0353648907        4.6351017923       -7.9455124110  CLST      86              1.0000000000
       431        87  DCM       C              -8.6773767444        0.4684779044        3.1436903792  CLST      87              1.0000000000
       432        87  DCM       H1             -9.6528773502        0.0790439586        3.5032134559  CLST      87              1.0000000000
       433        87  DCM       H2             -7.8556141665       -0.2459632990        3.3635147821  CLST      87              1.0000000000
       434        87  DCM       CL1            -8.7712884012        0.7207219402        1.3773488473  CLST      87              1.0000000000
       435        87  DCM       CL2            -8.3383655820        2.0186550127        3.9626332385  CLST      87              1.0000000000
       436        88  DCM       C               7.8487068894        5.5431954238       -0.1113755415  CLST      88              1.0000000000
       437        88  DCM       H1              8.0332302858        4.5472138089       -0.5652061028  CLST      88              1.0000000000
       438        88  DCM       H2              7.1510147083        6.1418793433       -0.7330658587  CLST      88              1.0000000000
       439        88  DCM       CL1             7.1349164685        5.3161755526        1.5091541668  CLST      88              1.0000000000
       440        88  DCM       CL2             9.4019822306        6.4147441819        0.0219048637  CLST      88              1.0000000000
       441        89  DCM       C               3.4941822383        6.5498957171        6.3901266457  CLST      89              1.0000000000
       442        89  DCM       H1              3.4447071977        5.4420593918        6.3543378645  CLST      89              1.0000000000
       443        89  DCM       H2              2.8580735184        7.0005710508        5.5995955816  CLST      89              1.0000000000
       444        89  DCM       CL1             5.1870985471        7.0626729611        6.1381528550  CLST      89              1.0000000000
       445        89  DCM       CL2             2.9178536791        7.0987657582        7.9894183458  CLST      89              1.0000000000
       446        90  DCM       C               8.4038727397        6.7580030617       11.7504535181  CLST      90              1.0000000000
       447        90  DCM       H1              8.4107471778        6.3929728186       10.7023322771  CLST      90              1.0000000000
       448        90  DCM       H2              9.2038241320        7.5103267549       11.9142972328  CLST      90              1.0000000000
       449        90  DCM       CL1             6.8177100572        7.5070641687       12.0975113136  CLST      90              1.0000000000
       450        90  DCM       CL2             8.6708500866        5.3739511916       12.8493644633  CLST      90              1.0000000000
       451        91  DCM       C              -3.2239137427        4.0932621528        6.8109565177  CLST      91              1.0000000000
       452        91  DCM       H1             -4.1193287224        4.0529002932        7.4656921013  CLST      91              1.0000000000
       453        91  DCM       H2             -2.9666238841        5.1392636856        6.5461292072  CLST      91              1.0000000000
       454        91  DCM       CL1            -1.8396269620        3.3602104949        7.6718433003  CLST      91              1.0000000000
       455        91  DCM       CL2            -3.5593617701        3.1828826984        5.3101311195  CLST      91              1.0000000000
       456        92  DCM       C              -0.6083774113        6.5565926038       -3.3294065033  CLST      92              1.0000000000
       457        92  DCM       H1             -1.1185125523        6.4498036473       -4.3153170436  CLST      92              1.0000000000
       458        92  DCM       H2              0.2651394923        7.2470695360       -3.3968363904  CLST      92              1.0000000000
       459        92  DCM       CL1            -1.7751998030        7.2096395403       -2.1477573121  CLST      92              1.0000000000
       460        92  DCM       CL2            -0.0448036276        4.9520329460       -2.7713307650  CLST      92              1.0000000000
       461        93  DCM       C               5.7277425950        3.1301519892        3.9825084103  CLST      93              1.0000000000
       462        93  DCM       H1              5.3962550275        4.0261765175        3.4179509121  CLST      93              1.0000000000
       463        93  DCM       H2              6.8021231546        2.9176514987        3.7990302065  CLST      93              1.0000000000
       464        93  DCM       CL1             4.7557244912        1.7267219469        3.4644652879  CLST      93              1.0000000000
       465        93  DCM       CL2             5.4731843525        3.4218113777        5.7240369330  CLST      93              1.0000000000
       466        94  DCM       C               8.2969816533       -3.5732082586       -8.3235965044  CLST      94              1.0000000000
       467        94  DCM       H1              9.1305296298       -3.3921749251       -9.0351060098  CLST      94              1.0000000000
       468        94  DCM       H2              7.9685178088       -4.6327457857       -8.3567105930  CLST      94              1.0000000000
       469        94  DCM       CL1             8.8492393319       -3.1879228598       -6.6676898833  CLST      94              1.0000000000
       470        94  DCM       CL2             6.9174372002       -2.5250339510       -8.7625256511  CLST      94              1.0000000000
       471        95  DCM       C               8.7371954862       -4.7139274303        5.2036446976  CLST      95              1.0000000000
       472        95  DCM       H1              7.7864478701       -4.3774238284        4.7357309194  CLST      95              1.0000000000
       473        95  DCM       H2              9.6120321447       -4.4376708095        4.5772700576  CLST      95              1.0000000000
       474        95  DCM       CL1             8.9042936504       -3.9396942856        6.8060374263  CLST      95              1.0000000000
       475        95  DCM       CL2             8.7026331062       -6.4919978491        5.3940606620  CLST      95              1.0000000000
