* MLPOT PHYSNET STEEPEST DESCENT (USER / MMML)
*  DATE:     6/28/26      3:31:39      CREATED BY USER: boittier
*
       100  EXT
         1         1  DCM       C              -3.1131303523        2.5512698987        3.0841371395  CLST      1               1.0000000000
         2         1  DCM       H1             -3.4932573944        2.0150587476        2.2197195420  CLST      1               1.0000000000
         3         1  DCM       H2             -2.0815991418        2.3928509926        3.3541413985  CLST      1               1.0000000000
         4         1  DCM       CL1            -3.2792812318        4.2824042594        2.7325834192  CLST      1               1.0000000000
         5         1  DCM       CL2            -4.1014816454        2.0603787515        4.4691072008  CLST      1               1.0000000000
         6         2  DCM       C               1.6588705069        0.6076103563       -0.0090604451  CLST      2               1.0000000000
         7         2  DCM       H1              1.9982111340       -0.1839632425       -0.6635388202  CLST      2               1.0000000000
         8         2  DCM       H2              2.1241116018        0.6313952536        0.9520249340  CLST      2               1.0000000000
         9         2  DCM       CL1             1.9663792953        2.1641452241       -0.8274361751  CLST      2               1.0000000000
        10         2  DCM       CL2            -0.1042485382        0.4292516304        0.1926929141  CLST      2               1.0000000000
        11         3  DCM       C              -5.4508741611       -2.0417535868        3.4888472094  CLST      3               1.0000000000
        12         3  DCM       H1             -6.5146929833       -1.9075217674        3.6257743535  CLST      3               1.0000000000
        13         3  DCM       H2             -5.0158170596       -1.5557949799        2.6296663013  CLST      3               1.0000000000
        14         3  DCM       CL1            -4.6294736943       -1.3542195775        4.8946245205  CLST      3               1.0000000000
        15         3  DCM       CL2            -5.1699740178       -3.7771850608        3.2986229278  CLST      3               1.0000000000
        16         4  DCM       C              -1.5646083780       -4.2072718825       -1.3480723020  CLST      4               1.0000000000
        17         4  DCM       H1             -0.4849018047       -4.2460478582       -1.3601359153  CLST      4               1.0000000000
        18         4  DCM       H2             -2.0339798796       -4.7643962941       -0.5550245816  CLST      4               1.0000000000
        19         4  DCM       CL1            -2.0103280792       -2.5055996466       -1.1288190564  CLST      4               1.0000000000
        20         4  DCM       CL2            -2.1409782910       -4.8604578777       -2.8920808726  CLST      4               1.0000000000
        21         5  DCM       C               3.6954354735        4.1978394038       -3.1130306225  CLST      5               1.0000000000
        22         5  DCM       H1              4.6086788243        4.0184782952       -2.5681999623  CLST      5               1.0000000000
        23         5  DCM       H2              2.9654587756        3.4019926498       -3.1479040432  CLST      5               1.0000000000
        24         5  DCM       CL1             2.8939538860        5.5667139482       -2.3128497925  CLST      5               1.0000000000
        25         5  DCM       CL2             4.1691732523        4.5319886916       -4.7869502269  CLST      5               1.0000000000
        26         6  DCM       C               4.1586546376       -1.4597580159       -5.6639106042  CLST      6               1.0000000000
        27         6  DCM       H1              3.3597721071       -1.4881355669       -6.3947311439  CLST      6               1.0000000000
        28         6  DCM       H2              5.1215961611       -1.1240472798       -6.0109851484  CLST      6               1.0000000000
        29         6  DCM       CL1             4.3740296957       -3.1157833925       -5.0745557518  CLST      6               1.0000000000
        30         6  DCM       CL2             3.6502660030       -0.3224748679       -4.3992320398  CLST      6               1.0000000000
        31         7  DCM       C              -1.3010675918        3.7543355923       -0.3409117577  CLST      7               1.0000000000
        32         7  DCM       H1             -1.4437259553        4.1613171771        0.6407017817  CLST      7               1.0000000000
        33         7  DCM       H2             -0.5467444860        2.9906477191       -0.4656568772  CLST      7               1.0000000000
        34         7  DCM       CL1            -2.8359238980        3.0044534229       -0.8473546198  CLST      7               1.0000000000
        35         7  DCM       CL2            -0.8367673618        5.1226589374       -1.3697750483  CLST      7               1.0000000000
        36         8  DCM       C               0.1492959638       -0.7531481784        3.6020383141  CLST      8               1.0000000000
        37         8  DCM       H1             -0.7669623652       -1.3143990212        3.5112721927  CLST      8               1.0000000000
        38         8  DCM       H2              0.5904325549       -0.4095590727        2.6783085258  CLST      8               1.0000000000
        39         8  DCM       CL1            -0.2017126016        0.6487711287        4.6322209274  CLST      8               1.0000000000
        40         8  DCM       CL2             1.3875525750       -1.7495464429        4.4107748373  CLST      8               1.0000000000
        41         9  DCM       C               4.2521244135        4.3633104684        0.7968203355  CLST      9               1.0000000000
        42         9  DCM       H1              4.7171643687        4.2870186829       -0.1702739913  CLST      9               1.0000000000
        43         9  DCM       H2              3.2117182057        4.0685418240        0.7860332594  CLST      9               1.0000000000
        44         9  DCM       CL1             5.0972783776        3.2927380139        1.9277607195  CLST      9               1.0000000000
        45         9  DCM       CL2             4.3538098908        6.0518298539        1.3124043362  CLST      9               1.0000000000
        46        10  DCM       C               3.4144493006       -5.2044457516       -0.7548561094  CLST      10              1.0000000000
        47        10  DCM       H1              4.0874146808       -4.3905308320       -0.5375992016  CLST      10              1.0000000000
        48        10  DCM       H2              2.9029353088       -5.6352523743        0.1065614260  CLST      10              1.0000000000
        49        10  DCM       CL1             2.1656707524       -4.5961027309       -1.8543155584  CLST      10              1.0000000000
        50        10  DCM       CL2             4.3297540178       -6.4898911777       -1.5487299971  CLST      10              1.0000000000
        51        11  DCM       C              -5.1437509679       -0.2884360923       -0.5577130756  CLST      11              1.0000000000
        52        11  DCM       H1             -4.2056567875        0.1166413387       -0.9199303359  CLST      11              1.0000000000
        53        11  DCM       H2             -5.9320839409       -0.3337258846       -1.2794117113  CLST      11              1.0000000000
        54        11  DCM       CL1            -4.8319380673       -1.9365329894        0.0381150633  CLST      11              1.0000000000
        55        11  DCM       CL2            -5.6794893531        0.7140751778        0.8077764313  CLST      11              1.0000000000
        56        12  DCM       C              -1.5723437372       -1.2272408089       -4.1081513087  CLST      12              1.0000000000
        57        12  DCM       H1             -1.5748146691       -1.2372903810       -5.1856546201  CLST      12              1.0000000000
        58        12  DCM       H2             -1.6506292970       -2.1916708734       -3.6331581139  CLST      12              1.0000000000
        59        12  DCM       CL1            -0.0410110442       -0.5118024282       -3.5726916413  CLST      12              1.0000000000
        60        12  DCM       CL2            -2.9854182696       -0.2720588504       -3.6031031407  CLST      12              1.0000000000
        61        13  DCM       C               1.0567005199        5.1262917614        2.4708069660  CLST      13              1.0000000000
        62        13  DCM       H1              2.1074417379        4.8692915894        2.5396586907  CLST      13              1.0000000000
        63        13  DCM       H2              0.5665593684        4.8896525670        1.5374189324  CLST      13              1.0000000000
        64        13  DCM       CL1             0.2112564171        4.2250074403        3.7406700666  CLST      13              1.0000000000
        65        13  DCM       CL2             0.9231353290        6.8748335314        2.7018974779  CLST      13              1.0000000000
        66        14  DCM       C               4.6504264407       -2.0362608156        2.4768548598  CLST      14              1.0000000000
        67        14  DCM       H1              4.1181761329       -2.4909228918        3.2959099387  CLST      14              1.0000000000
        68        14  DCM       H2              4.9219254841       -1.0027160342        2.6300865115  CLST      14              1.0000000000
        69        14  DCM       CL1             6.1389126619       -2.9467833747        2.1800985033  CLST      14              1.0000000000
        70        14  DCM       CL2             3.5705468465       -2.1114970053        1.0613206390  CLST      14              1.0000000000
        71        15  DCM       C              -5.5535191517        4.4969946311       -4.7006382256  CLST      15              1.0000000000
        72        15  DCM       H1             -6.0451688741        3.7342258348       -4.1153679899  CLST      15              1.0000000000
        73        15  DCM       H2             -4.5443671190        4.2803729045       -5.0182292950  CLST      15              1.0000000000
        74        15  DCM       CL1            -6.5068186834        4.7216963749       -6.1728940388  CLST      15              1.0000000000
        75        15  DCM       CL2            -5.4668651692        5.9502620576       -3.6946537408  CLST      15              1.0000000000
        76        16  DCM       C              -1.1756257100        3.1417305912       -4.4166118875  CLST      16              1.0000000000
        77        16  DCM       H1             -1.3609981442        3.5630325198       -3.4410726876  CLST      16              1.0000000000
        78        16  DCM       H2             -1.6454846051        2.1924348241       -4.6030073931  CLST      16              1.0000000000
        79        16  DCM       CL1            -1.7773511469        4.3006396505       -5.6104097371  CLST      16              1.0000000000
        80        16  DCM       CL2             0.5733936086        2.9169691341       -4.5701089950  CLST      16              1.0000000000
        81        17  DCM       C              -0.4120867850       -4.5837487996        2.6884976603  CLST      17              1.0000000000
        82        17  DCM       H1             -0.8443545731       -5.2472047923        3.4186443891  CLST      17              1.0000000000
        83        17  DCM       H2              0.3629882706       -3.9165235718        3.0569317366  CLST      17              1.0000000000
        84        17  DCM       CL1            -1.7299374060       -3.5904945270        2.0344509514  CLST      17              1.0000000000
        85        17  DCM       CL2             0.3093657737       -5.5586148340        1.3883746425  CLST      17              1.0000000000
        86        18  DCM       C              -5.4684207734       -3.4481922777       -2.9331122079  CLST      18              1.0000000000
        87        18  DCM       H1             -4.6724293536       -2.9762486527       -2.3828323620  CLST      18              1.0000000000
        88        18  DCM       H2             -5.5841915093       -4.5074313943       -2.7640314140  CLST      18              1.0000000000
        89        18  DCM       CL1            -6.9957678082       -2.6756005888       -2.4765675043  CLST      18              1.0000000000
        90        18  DCM       CL2            -5.0886490348       -3.2024891893       -4.6425405572  CLST      18              1.0000000000
        91        19  DCM       C               5.2221381658        1.4082362592        5.5245226428  CLST      19              1.0000000000
        92        19  DCM       H1              5.7502175929        1.9046951329        6.3314422320  CLST      19              1.0000000000
        93        19  DCM       H2              4.6725200847        2.0404683466        4.8526377482  CLST      19              1.0000000000
        94        19  DCM       CL1             6.4325859213        0.5677132218        4.5331882032  CLST      19              1.0000000000
        95        19  DCM       CL2             4.0677702313        0.2906270516        6.2745913412  CLST      19              1.0000000000
        96        20  DCM       C               2.7617534976       -4.9385623679        3.9226773171  CLST      20              1.0000000000
        97        20  DCM       H1              2.5508270419       -4.1559145250        3.2053975610  CLST      20              1.0000000000
        98        20  DCM       H2              2.0061587005       -5.0774394020        4.6829498554  CLST      20              1.0000000000
        99        20  DCM       CL1             2.9650267063       -6.4619722930        3.0383143450  CLST      20              1.0000000000
       100        20  DCM       CL2             4.2666845948       -4.5382307400        4.7678094243  CLST      20              1.0000000000
