* PRE_MLPOT:MONOMER_REPACK
*  DATE:     6/28/26      1:57: 4      CREATED BY USER: boittier
*
       460  EXT
         1         1  DCM       C              -1.2285064414       -1.6259014381       -3.0974780980  CLST      1               1.0000000000
         2         1  DCM       H1             -0.1247668744       -1.5634643853       -3.2069885261  CLST      1               1.0000000000
         3         1  DCM       H2             -1.5972854441       -0.8986367629       -2.3434739750  CLST      1               1.0000000000
         4         1  DCM       CL1            -1.9921940674       -1.2657446831       -4.6731729298  CLST      1               1.0000000000
         5         1  DCM       CL2            -1.6686297770       -3.2776480037       -2.5743087209  CLST      1               1.0000000000
         6         2  DCM       C               2.5255426224       -1.6450761153        1.2973971428  CLST      2               1.0000000000
         7         2  DCM       H1              1.7019703631       -2.1681752523        1.8282636400  CLST      2               1.0000000000
         8         2  DCM       H2              3.5117085469       -1.9148238420        1.7269618555  CLST      2               1.0000000000
         9         2  DCM       CL1             2.5035328139       -2.1157924512       -0.4265083764  CLST      2               1.0000000000
        10         2  DCM       CL2             2.2911001651        0.1203480142        1.4511969498  CLST      2               1.0000000000
        11         3  DCM       C              -0.3798009390        1.5561929627        1.9225323488  CLST      3               1.0000000000
        12         3  DCM       H1              0.5960540123        1.0253465907        1.9207121065  CLST      3               1.0000000000
        13         3  DCM       H2             -0.2872511899        2.5566376055        2.3954720995  CLST      3               1.0000000000
        14         3  DCM       CL1            -0.9360819795        1.7598842220        0.2365521530  CLST      3               1.0000000000
        15         3  DCM       CL2            -1.5710947825        0.5920973575        2.8419623432  CLST      3               1.0000000000
        16         4  DCM       C               2.5774203100        2.8300045309       -2.4181357279  CLST      4               1.0000000000
        17         4  DCM       H1              3.3740683806        3.2242600698       -3.0831295145  CLST      4               1.0000000000
        18         4  DCM       H2              1.5812213883        3.2129362561       -2.7210999338  CLST      4               1.0000000000
        19         4  DCM       CL1             2.5593930070        1.0465444686       -2.5193394822  CLST      4               1.0000000000
        20         4  DCM       CL2             2.9146904200        3.3426469247       -0.7394689152  CLST      4               1.0000000000
        21         5  DCM       C               3.1902660164       -1.0545393966       -1.0181625014  CLST      5               1.0000000000
        22         5  DCM       H1              4.2368860010       -1.2595230236       -1.3290492591  CLST      5               1.0000000000
        23         5  DCM       H2              2.7499118143       -0.2352274352       -1.6246750264  CLST      5               1.0000000000
        24         5  DCM       CL1             2.2175614892       -2.5367918076       -1.2477538428  CLST      5               1.0000000000
        25         5  DCM       CL2             3.1726724902       -0.5799474952        0.7053593215  CLST      5               1.0000000000
        26         6  DCM       C               2.3040274455       -2.5242915441        2.4541037177  CLST      6               1.0000000000
        27         6  DCM       H1              3.2379897637       -2.9907095277        2.0797904230  CLST      6               1.0000000000
        28         6  DCM       H2              2.4725678802       -1.4642154144        2.7385315726  CLST      6               1.0000000000
        29         6  DCM       CL1             1.0689144683       -2.5934518747        1.1645105663  CLST      6               1.0000000000
        30         6  DCM       CL2             1.7425959153       -3.4350105736        3.8858208283  CLST      6               1.0000000000
        31         7  DCM       C               2.9903023508        1.8140710917       -0.6122844000  CLST      7               1.0000000000
        32         7  DCM       H1              3.7702351049        1.8521016820       -1.4013701376  CLST      7               1.0000000000
        33         7  DCM       H2              3.3792404275        1.3359310100        0.3120356445  CLST      7               1.0000000000
        34         7  DCM       CL1             2.4722491891        3.4822578512       -0.2360828720  CLST      7               1.0000000000
        35         7  DCM       CL2             1.5977143216        0.8672378313       -1.2116099004  CLST      7               1.0000000000
        36         8  DCM       C              -0.8723748405        1.8601193953        0.7754993750  CLST      8               1.0000000000
        37         8  DCM       H1             -1.8736584269        1.8458840057        1.2557073311  CLST      8               1.0000000000
        38         8  DCM       H2             -0.2907474544        0.9530437981        1.0437417526  CLST      8               1.0000000000
        39         8  DCM       CL1            -1.0752379602        1.9212130660       -1.0008689615  CLST      8               1.0000000000
        40         8  DCM       CL2             0.0165299049        3.3064420172        1.3338217780  CLST      8               1.0000000000
        41         9  DCM       C              -1.3680015433        2.6676556120        1.7719740108  CLST      9               1.0000000000
        42         9  DCM       H1             -1.3236690111        3.2972646480        0.8589007120  CLST      9               1.0000000000
        43         9  DCM       H2             -0.8653307015        3.1722086169        2.6230443782  CLST      9               1.0000000000
        44         9  DCM       CL1            -3.0815303201        2.3749231460        2.1910039697  CLST      9               1.0000000000
        45         9  DCM       CL2            -0.5516498016        1.1106643147        1.4500134684  CLST      9               1.0000000000
        46        10  DCM       C              -1.7464465384       -1.3812578700       -0.6675172726  CLST      10              1.0000000000
        47        10  DCM       H1             -0.7758343968       -1.8348223519       -0.9563983916  CLST      10              1.0000000000
        48        10  DCM       H2             -1.6256921697       -0.3094720236       -0.4151825662  CLST      10              1.0000000000
        49        10  DCM       CL1            -2.3858494354       -2.2278673804        0.7675849408  CLST      10              1.0000000000
        50        10  DCM       CL2            -2.8915769374       -1.5251425813       -2.0307887992  CLST      10              1.0000000000
        51        11  DCM       C               0.5488749401        0.6279719826       -1.3027374757  CLST      11              1.0000000000
        52        11  DCM       H1              1.3292043513        0.4418591951       -0.5338934938  CLST      11              1.0000000000
        53        11  DCM       H2             -0.4536705475        0.7352013678       -0.8375154479  CLST      11              1.0000000000
        54        11  DCM       CL1             0.9399279293        2.1277429733       -2.1900417410  CLST      11              1.0000000000
        55        11  DCM       CL2             0.5140510263       -0.7465462372       -2.4409893118  CLST      11              1.0000000000
        56        12  DCM       C               2.6551166561        2.7058841185        0.2456446815  CLST      12              1.0000000000
        57        12  DCM       H1              2.0369168079        2.7948343496        1.1624589125  CLST      12              1.0000000000
        58        12  DCM       H2              3.6945189996        2.4135170377        0.4982805109  CLST      12              1.0000000000
        59        12  DCM       CL1             1.9431322352        1.4571988602       -0.8090139786  CLST      12              1.0000000000
        60        12  DCM       CL2             2.6815126112        4.2706594370       -0.6144526447  CLST      12              1.0000000000
        61        13  DCM       C              -1.6257141852       -2.2640081222       -1.6252559851  CLST      13              1.0000000000
        62        13  DCM       H1             -1.1060440698       -2.1054540857       -0.6564122147  CLST      13              1.0000000000
        63        13  DCM       H2             -2.2729296106       -3.1654952724       -1.5890965564  CLST      13              1.0000000000
        64        13  DCM       CL1            -2.6388973670       -0.8361020163       -1.9859322224  CLST      13              1.0000000000
        65        13  DCM       CL2            -0.4037481968       -2.4797080525       -2.9102388575  CLST      13              1.0000000000
        66        14  DCM       C               2.7504757013        1.3420458828        2.3709758445  CLST      14              1.0000000000
        67        14  DCM       H1              2.5596542299        1.6089634689        3.4311387680  CLST      14              1.0000000000
        68        14  DCM       H2              2.9069935287        2.2509503871        1.7538123871  CLST      14              1.0000000000
        69        14  DCM       CL1             4.2150997539        0.3214526158        2.2809783014  CLST      14              1.0000000000
        70        14  DCM       CL2             1.3422405363        0.4395058857        1.7409436324  CLST      14              1.0000000000
        71        15  DCM       C              -0.4144166680       -0.4900193394        2.3723228638  CLST      15              1.0000000000
        72        15  DCM       H1             -0.3976446085       -1.3159762687        3.1144274689  CLST      15              1.0000000000
        73        15  DCM       H2             -0.4113178967        0.4996720760        2.8758404682  CLST      15              1.0000000000
        74        15  DCM       CL1             1.0289478690       -0.6150882854        1.3254005623  CLST      15              1.0000000000
        75        15  DCM       CL2            -1.8930525417       -0.6316964094        1.3803487016  CLST      15              1.0000000000
        76        16  DCM       C               1.3491310911        0.5233588839        1.0096646714  CLST      16              1.0000000000
        77        16  DCM       H1              0.8567382921       -0.2757002208        0.4189688191  CLST      16              1.0000000000
        78        16  DCM       H2              2.4539220573        0.4697961144        0.9088605199  CLST      16              1.0000000000
        79        16  DCM       CL1             0.7860686203        2.1151972453        0.4198744939  CLST      16              1.0000000000
        80        16  DCM       CL2             0.9089285610        0.3181553218        2.7301296081  CLST      16              1.0000000000
        81        17  DCM       C              -0.5670910554        2.1930201314       -2.4600288513  CLST      17              1.0000000000
        82        17  DCM       H1             -1.1491928893        2.7918293419       -1.7300038186  CLST      17              1.0000000000
        83        17  DCM       H2              0.5206428660        2.2605498824       -2.2494766223  CLST      17              1.0000000000
        84        17  DCM       CL1            -0.8831711925        2.8159106502       -4.1052134145  CLST      17              1.0000000000
        85        17  DCM       CL2            -1.0770288101        0.4838825447       -2.3484239786  CLST      17              1.0000000000
        86        18  DCM       C              -0.2419733902       -0.1807268058       -1.4333623485  CLST      18              1.0000000000
        87        18  DCM       H1             -0.6760208011        0.2310893755       -0.4978183101  CLST      18              1.0000000000
        88        18  DCM       H2             -0.8388647980       -1.0407186538       -1.8042492215  CLST      18              1.0000000000
        89        18  DCM       CL1            -0.2310818271        1.1007465191       -2.6812598529  CLST      18              1.0000000000
        90        18  DCM       CL2             1.4286489460       -0.7267104024       -1.1080416483  CLST      18              1.0000000000
        91        19  DCM       C               2.4777434418       -1.0661861979        2.6864805545  CLST      19              1.0000000000
        92        19  DCM       H1              1.8555445333       -0.4107894012        3.3450394752  CLST      19              1.0000000000
        93        19  DCM       H2              2.6327880266       -2.0625063983        3.1477299092  CLST      19              1.0000000000
        94        19  DCM       CL1             1.6521012570       -1.2801779295        1.1210402462  CLST      19              1.0000000000
        95        19  DCM       CL2             4.0647433940       -0.2849198633        2.4426024587  CLST      19              1.0000000000
        96        20  DCM       C               2.5024324100        0.5977703241        2.8778634704  CLST      20              1.0000000000
        97        20  DCM       H1              1.6594803607        0.6308004601        3.5976569801  CLST      20              1.0000000000
        98        20  DCM       H2              3.4267870425        1.0165984396        3.3275166992  CLST      20              1.0000000000
        99        20  DCM       CL1             2.7920727331       -1.1019501200        2.4116348766  CLST      20              1.0000000000
       100        20  DCM       CL2             2.0661209970        1.5589043322        1.4382953560  CLST      20              1.0000000000
       101        21  DCM       C               1.8919304711       -1.6861444332       -1.8201708826  CLST      21              1.0000000000
       102        21  DCM       H1              2.3208356158       -2.2203672440       -0.9466644638  CLST      21              1.0000000000
       103        21  DCM       H2              2.4578706566       -0.7546521738       -2.0325262004  CLST      21              1.0000000000
       104        21  DCM       CL1             1.9741642845       -2.7580257776       -3.2443578508  CLST      21              1.0000000000
       105        21  DCM       CL2             0.1886065386       -1.2700080832       -1.4776375344  CLST      21              1.0000000000
       106        22  DCM       C              -0.2472459444       -2.4922856961        0.7952025644  CLST      22              1.0000000000
       107        22  DCM       H1              0.4440668968       -2.2927479415        1.6412474292  CLST      22              1.0000000000
       108        22  DCM       H2             -0.0236883768       -1.8338128526       -0.0698247403  CLST      22              1.0000000000
       109        22  DCM       CL1            -0.0747373526       -4.1972754511        0.2868742202  CLST      22              1.0000000000
       110        22  DCM       CL2            -1.9224580747       -2.1849508224        1.3306870617  CLST      22              1.0000000000
       111        23  DCM       C              -0.4087692877        1.2823940118       -1.4723608892  CLST      23              1.0000000000
       112        23  DCM       H1             -0.3466313970        2.2259873589       -0.8903625526  CLST      23              1.0000000000
       113        23  DCM       H2             -0.5381501775        0.4092473856       -0.7993022805  CLST      23              1.0000000000
       114        23  DCM       CL1             1.0974428067        1.0768433227       -2.4117793485  CLST      23              1.0000000000
       115        23  DCM       CL2            -1.8042070922        1.3714454370       -2.5847587990  CLST      23              1.0000000000
       116        24  DCM       C              -1.0280875336       -0.5984225035        3.0117358247  CLST      24              1.0000000000
       117        24  DCM       H1             -0.8689516107       -1.6922802752        3.1029356232  CLST      24              1.0000000000
       118        24  DCM       H2             -1.5719928936       -0.2097562416        3.8965360165  CLST      24              1.0000000000
       119        24  DCM       CL1             0.5565253433        0.2184752547        2.9012189358  CLST      24              1.0000000000
       120        24  DCM       CL2            -1.9917452661       -0.2675390219        1.5417554788  CLST      24              1.0000000000
       121        25  DCM       C               1.1358731130       -2.2364489892       -1.9946400292  CLST      25              1.0000000000
       122        25  DCM       H1              1.1912428408       -3.3339106235       -2.1413564671  CLST      25              1.0000000000
       123        25  DCM       H2              0.3320822101       -1.9761513714       -1.2750715448  CLST      25              1.0000000000
       124        25  DCM       CL1             2.6985790747       -1.6560660618       -1.3527767348  CLST      25              1.0000000000
       125        25  DCM       CL2             0.7939145069       -1.4600031172       -3.5677035939  CLST      25              1.0000000000
       126        26  DCM       C              -1.2707306603       -0.1141605681       -1.3191215189  CLST      26              1.0000000000
       127        26  DCM       H1             -1.0376495787       -0.3907646740       -0.2687266461  CLST      26              1.0000000000
       128        26  DCM       H2             -2.1794314330        0.5217579021       -1.3731205625  CLST      26              1.0000000000
       129        26  DCM       CL1             0.1115137797        0.7883509817       -2.0030898565  CLST      26              1.0000000000
       130        26  DCM       CL2            -1.5449255021       -1.6039395639       -2.2673267422  CLST      26              1.0000000000
       131        27  DCM       C              -2.8775641897        1.5111392042       -2.2621650593  CLST      27              1.0000000000
       132        27  DCM       H1             -2.3115529877        0.8746893957       -1.5473119508  CLST      27              1.0000000000
       133        27  DCM       H2             -2.8378177174        1.0875964105       -3.2889627606  CLST      27              1.0000000000
       134        27  DCM       CL1            -4.5802515589        1.6004968388       -1.7349612838  CLST      27              1.0000000000
       135        27  DCM       CL2            -2.1531966317        3.1473464127       -2.2764799346  CLST      27              1.0000000000
       136        28  DCM       C              -2.5699843824       -0.0586855478       -0.2510115754  CLST      28              1.0000000000
       137        28  DCM       H1             -1.4826920130        0.1367772187       -0.1852345953  CLST      28              1.0000000000
       138        28  DCM       H2             -2.8365285550       -0.5469908371       -1.2090665870  CLST      28              1.0000000000
       139        28  DCM       CL1            -3.0450053057       -1.1304013411        1.0970916715  CLST      28              1.0000000000
       140        28  DCM       CL2            -3.4485979263        1.4943452789       -0.1325609134  CLST      28              1.0000000000
       141        29  DCM       C               2.7103976181        2.1838738627       -0.7452606751  CLST      29              1.0000000000
       142        29  DCM       H1              1.8528938239        2.4435582100       -1.4007624008  CLST      29              1.0000000000
       143        29  DCM       H2              3.2859327929        3.0897663722       -0.4641666206  CLST      29              1.0000000000
       144        29  DCM       CL1             2.0970796179        1.4005702229        0.7390113096  CLST      29              1.0000000000
       145        29  DCM       CL2             3.7880238026        1.0639458227       -1.6215849277  CLST      29              1.0000000000
       146        30  DCM       C              -0.5826406425        2.8733759689       -2.5477190206  CLST      30              1.0000000000
       147        30  DCM       H1             -0.1637670789        3.3609677586       -3.4525200844  CLST      30              1.0000000000
       148        30  DCM       H2             -1.2436064461        3.5703600527       -1.9900406822  CLST      30              1.0000000000
       149        30  DCM       CL1            -1.5337881967        1.4426122286       -3.0435180707  CLST      30              1.0000000000
       150        30  DCM       CL2             0.7619946468        2.3687354273       -1.4829506203  CLST      30              1.0000000000
       151        31  DCM       C               2.2308571552       -0.1349234814        1.7654564023  CLST      31              1.0000000000
       152        31  DCM       H1              2.0460807594       -0.6926698425        2.7077533762  CLST      31              1.0000000000
       153        31  DCM       H2              3.2574935751       -0.3209132595        1.3847926991  CLST      31              1.0000000000
       154        31  DCM       CL1             1.0478356965       -0.6665285661        0.5340991839  CLST      31              1.0000000000
       155        31  DCM       CL2             2.0369277892        1.6146562326        2.0784185009  CLST      31              1.0000000000
       156        32  DCM       C               2.6085577616        0.2400495366       -1.5507940822  CLST      32              1.0000000000
       157        32  DCM       H1              2.0694710523        0.0881244927       -0.5906676386  CLST      32              1.0000000000
       158        32  DCM       H2              1.9042364134        0.5385918024       -2.3540527962  CLST      32              1.0000000000
       159        32  DCM       CL1             3.8322176165        1.5218316237       -1.3370756277  CLST      32              1.0000000000
       160        32  DCM       CL2             3.4168434038       -1.2798313765       -2.0249456859  CLST      32              1.0000000000
       161        33  DCM       C               2.4631972670       -0.4233350908       -0.9518757363  CLST      33              1.0000000000
       162        33  DCM       H1              2.9235703885        0.3838909117       -0.3449603483  CLST      33              1.0000000000
       163        33  DCM       H2              2.0063911125       -1.2013089845       -0.3031876830  CLST      33              1.0000000000
       164        33  DCM       CL1             3.7242391847       -1.1855461618       -1.9587988062  CLST      33              1.0000000000
       165        33  DCM       CL2             1.1980727980        0.2790483741       -2.0024950404  CLST      33              1.0000000000
       166        34  DCM       C              -1.6622844335       -0.4935117998        0.0506086849  CLST      34              1.0000000000
       167        34  DCM       H1             -1.9665196059       -0.5323650256       -1.0158805553  CLST      34              1.0000000000
       168        34  DCM       H2             -0.8717230258        0.2699312693        0.2117041994  CLST      34              1.0000000000
       169        34  DCM       CL1            -1.0312325834       -2.0964000437        0.5267510209  CLST      34              1.0000000000
       170        34  DCM       CL2            -3.0833463333       -0.0755855172        1.0497078326  CLST      34              1.0000000000
       171        35  DCM       C               1.1571484495        2.5576743597       -1.3107164426  CLST      35              1.0000000000
       172        35  DCM       H1              0.2648111997        3.2113374911       -1.2196295529  CLST      35              1.0000000000
       173        35  DCM       H2              2.0961367414        3.1458105389       -1.2351062963  CLST      35              1.0000000000
       174        35  DCM       CL1             1.1162186963        1.7357137456       -2.8967320672  CLST      35              1.0000000000
       175        35  DCM       CL2             1.1225584043        1.3444815639        0.0027162643  CLST      35              1.0000000000
       176        36  DCM       C              -1.8486156101       -1.4388099178        2.1845183240  CLST      36              1.0000000000
       177        36  DCM       H1             -2.9136993026       -1.1422799609        2.2914380166  CLST      36              1.0000000000
       178        36  DCM       H2             -1.6821315285       -1.9936152596        1.2373703227  CLST      36              1.0000000000
       179        36  DCM       CL1            -0.8314886039        0.0322206173        2.1813489714  CLST      36              1.0000000000
       180        36  DCM       CL2            -1.3983994868       -2.4893951588        3.5580312689  CLST      36              1.0000000000
       181        37  DCM       C               1.9515821022        0.9559536114        0.3613939148  CLST      37              1.0000000000
       182        37  DCM       H1              2.5218008904        0.1574494415        0.8825547702  CLST      37              1.0000000000
       183        37  DCM       H2              0.9297252407        0.6076332113        0.0982301349  CLST      37              1.0000000000
       184        37  DCM       CL1             1.8241464976        2.3775471826        1.4369736779  CLST      37              1.0000000000
       185        37  DCM       CL2             2.8138181796        1.4041685673       -1.1392265601  CLST      37              1.0000000000
       186        38  DCM       C               0.3259354207        0.1410361895       -2.5712664089  CLST      38              1.0000000000
       187        38  DCM       H1              0.8292145662        0.4226159897       -3.5207869452  CLST      38              1.0000000000
       188        38  DCM       H2              0.6984726107       -0.8362562023       -2.1998244237  CLST      38              1.0000000000
       189        38  DCM       CL1             0.6536047532        1.3995536217       -1.3446027721  CLST      38              1.0000000000
       190        38  DCM       CL2            -1.4305628502        0.0248423240       -2.8636464632  CLST      38              1.0000000000
       191        39  DCM       C              -2.0974755422        3.4116296165       -1.4993477384  CLST      39              1.0000000000
       192        39  DCM       H1             -2.9880029192        3.0298360244       -0.9572027518  CLST      39              1.0000000000
       193        39  DCM       H2             -2.3232606903        3.5746858886       -2.5742779681  CLST      39              1.0000000000
       194        39  DCM       CL1            -1.5930117249        4.9647482015       -0.7706948575  CLST      39              1.0000000000
       195        39  DCM       CL2            -0.7785743804        2.2141413020       -1.3569862617  CLST      39              1.0000000000
       196        40  DCM       C               0.4595828468       -0.0852374059        1.8761342672  CLST      40              1.0000000000
       197        40  DCM       H1              0.1403904388       -0.7191192464        1.0220495249  CLST      40              1.0000000000
       198        40  DCM       H2              1.4708764277       -0.3740234696        2.2329825652  CLST      40              1.0000000000
       199        40  DCM       CL1             0.4958086055        1.6216053902        1.3496641508  CLST      40              1.0000000000
       200        40  DCM       CL2            -0.7106861374       -0.2816631125        3.2133477369  CLST      40              1.0000000000
       201        41  DCM       C               2.8877000564        2.7099796602        1.2282598814  CLST      41              1.0000000000
       202        41  DCM       H1              3.8734961617        2.5627724786        1.7146812821  CLST      41              1.0000000000
       203        41  DCM       H2              2.5265249443        1.7695376853        0.7621172678  CLST      41              1.0000000000
       204        41  DCM       CL1             1.7046831278        3.2461897136        2.4571466685  CLST      41              1.0000000000
       205        41  DCM       CL2             3.0601331148        3.9590617939       -0.0353942307  CLST      41              1.0000000000
       206        42  DCM       C              -0.8039596212        2.3209442353       -0.2043431538  CLST      42              1.0000000000
       207        42  DCM       H1             -1.6790394282        2.5105101099       -0.8608381203  CLST      42              1.0000000000
       208        42  DCM       H2             -0.0489420672        3.1300631369       -0.2950995642  CLST      42              1.0000000000
       209        42  DCM       CL1            -1.3562557182        2.2299545675        1.4924884528  CLST      42              1.0000000000
       210        42  DCM       CL2            -0.0548201320        0.7710094895       -0.6799000443  CLST      42              1.0000000000
       211        43  DCM       C              -2.6854815635        1.8737554300        1.4197129569  CLST      43              1.0000000000
       212        43  DCM       H1             -1.7074404282        2.3963249617        1.4609229010  CLST      43              1.0000000000
       213        43  DCM       H2             -3.3839097342        2.3905783685        0.7287240752  CLST      43              1.0000000000
       214        43  DCM       CL1            -2.4301159288        0.1999962104        0.8466565224  CLST      43              1.0000000000
       215        43  DCM       CL2            -3.3993170877        1.8495983426        3.0573347992  CLST      43              1.0000000000
       216        44  DCM       C              -2.4335406886        0.0823312849       -1.1189501974  CLST      44              1.0000000000
       217        44  DCM       H1             -2.5411082870        0.7224091193       -0.2188077184  CLST      44              1.0000000000
       218        44  DCM       H2             -3.1398354813        0.3997595728       -1.9114847609  CLST      44              1.0000000000
       219        44  DCM       CL1            -0.7638660249        0.2157273920       -1.7386141933  CLST      44              1.0000000000
       220        44  DCM       CL2            -2.7763242126       -1.6121867080       -0.6771072715  CLST      44              1.0000000000
       221        45  DCM       C               0.1257927543        1.8723160153        0.9472088562  CLST      45              1.0000000000
       222        45  DCM       H1             -0.1719855463        1.1047354176        1.6925754705  CLST      45              1.0000000000
       223        45  DCM       H2             -0.3528335615        2.8506710029        1.1656469756  CLST      45              1.0000000000
       224        45  DCM       CL1             1.9016661019        2.0710107521        0.9919635621  CLST      45              1.0000000000
       225        45  DCM       CL2            -0.3810997203        1.3301354486       -0.6779043885  CLST      45              1.0000000000
       226        46  DCM       C              -2.6291462977       -1.6111575710       -2.5062577333  CLST      46              1.0000000000
       227        46  DCM       H1             -2.6693770112       -2.2840979232       -3.3879559041  CLST      46              1.0000000000
       228        46  DCM       H2             -1.8223173680       -1.9161954058       -1.8071565238  CLST      46              1.0000000000
       229        46  DCM       CL1            -2.3134184274        0.0585208605       -3.0618740492  CLST      46              1.0000000000
       230        46  DCM       CL2            -4.1984774323       -1.6859972006       -1.6531541189  CLST      46              1.0000000000
       231        47  DCM       C              -2.2362744959       -1.1791173506        1.1930175225  CLST      47              1.0000000000
       232        47  DCM       H1             -2.2042278521       -0.9903085128        2.2872639501  CLST      47              1.0000000000
       233        47  DCM       H2             -2.6948275678       -0.3228433965        0.6545239235  CLST      47              1.0000000000
       234        47  DCM       CL1            -0.5690122864       -1.4167265547        0.5926492883  CLST      47              1.0000000000
       235        47  DCM       CL2            -3.2104961934       -2.6465935713        0.8833301794  CLST      47              1.0000000000
       236        48  DCM       C              -2.4745931493        1.4517171830        0.3222576093  CLST      48              1.0000000000
       237        48  DCM       H1             -1.5937174815        1.5887936262        0.9832662057  CLST      48              1.0000000000
       238        48  DCM       H2             -2.2994611557        1.9179230511       -0.6687790970  CLST      48              1.0000000000
       239        48  DCM       CL1            -2.7784211424       -0.2938951986        0.0984101206  CLST      48              1.0000000000
       240        48  DCM       CL2            -3.8912045088        2.2189001124        1.0918664775  CLST      48              1.0000000000
       241        49  DCM       C               1.6905194923        3.0271201567        0.2701413515  CLST      49              1.0000000000
       242        49  DCM       H1              1.4042856215        4.0727621705        0.0245736334  CLST      49              1.0000000000
       243        49  DCM       H2              2.5281067591        3.0062560648        0.9983981969  CLST      49              1.0000000000
       244        49  DCM       CL1             2.1993718239        2.1960344955       -1.2279818611  CLST      49              1.0000000000
       245        49  DCM       CL2             0.2814520105        2.1893935399        0.9825407868  CLST      49              1.0000000000
       246        50  DCM       C               2.3227320350       -2.2767707540       -2.4630308316  CLST      50              1.0000000000
       247        50  DCM       H1              2.8861684027       -2.5334393425       -3.3846114671  CLST      50              1.0000000000
       248        50  DCM       H2              1.8299089521       -3.1750956654       -2.0353341670  CLST      50              1.0000000000
       249        50  DCM       CL1             3.4553566339       -1.6077175780       -1.2524937280  CLST      50              1.0000000000
       250        50  DCM       CL2             1.0729949175       -1.0631673921       -2.8637650394  CLST      50              1.0000000000
       251        51  DCM       C              -2.7374908523       -0.1769690028        1.9226724284  CLST      51              1.0000000000
       252        51  DCM       H1             -2.7690049450        0.3923464914        0.9704232437  CLST      51              1.0000000000
       253        51  DCM       H2             -3.3774940536       -1.0825881922        1.8651043966  CLST      51              1.0000000000
       254        51  DCM       CL1            -1.0524391838       -0.6728130193        2.2528296618  CLST      51              1.0000000000
       255        51  DCM       CL2            -3.3253148526        0.8719249837        3.2416505784  CLST      51              1.0000000000
       256        52  DCM       C               2.6263497398       -2.4409670955        1.5846930611  CLST      52              1.0000000000
       257        52  DCM       H1              2.2798843725       -2.0296103244        0.6131483210  CLST      52              1.0000000000
       258        52  DCM       H2              2.4684626125       -1.7120407460        2.4073495838  CLST      52              1.0000000000
       259        52  DCM       CL1             4.3702704921       -2.8205100664        1.4692519293  CLST      52              1.0000000000
       260        52  DCM       CL2             1.7034562807       -3.9288455204        1.9428836212  CLST      52              1.0000000000
       261        53  DCM       C              -1.9727801405        0.0840181988       -1.0686192143  CLST      53              1.0000000000
       262        53  DCM       H1             -1.6975267284        1.0643848729       -1.5107054077  CLST      53              1.0000000000
       263        53  DCM       H2             -1.5959943451       -0.7541132266       -1.6916057426  CLST      53              1.0000000000
       264        53  DCM       CL1            -1.2556334705       -0.0337511785        0.5643132044  CLST      53              1.0000000000
       265        53  DCM       CL2            -3.7551736515       -0.0272429318       -0.9593363195  CLST      53              1.0000000000
       266        54  DCM       C              -0.0784668760       -2.4994230929        2.6990037965  CLST      54              1.0000000000
       267        54  DCM       H1             -0.4214547739       -3.0837233323        3.5779135229  CLST      54              1.0000000000
       268        54  DCM       H2              0.9487478595       -2.1091426405        2.8567679336  CLST      54              1.0000000000
       269        54  DCM       CL1            -1.1935391083       -1.1257346890        2.4340316235  CLST      54              1.0000000000
       270        54  DCM       CL2            -0.0793953406       -3.5657669106        1.2678611483  CLST      54              1.0000000000
       271        55  DCM       C               0.6122896658        0.7538089289       -0.1255637911  CLST      55              1.0000000000
       272        55  DCM       H1              0.6832669566       -0.0140615325       -0.9231289479  CLST      55              1.0000000000
       273        55  DCM       H2             -0.2623172316        1.4143979960       -0.2937603915  CLST      55              1.0000000000
       274        55  DCM       CL1             0.4276163534       -0.0505755466        1.4562006863  CLST      55              1.0000000000
       275        55  DCM       CL2             2.1065666864        1.7329050276       -0.1294831171  CLST      55              1.0000000000
       276        56  DCM       C              -0.6263185970        2.2057420210       -0.9078809356  CLST      56              1.0000000000
       277        56  DCM       H1              0.2745022552        1.6575186591       -0.5599925701  CLST      56              1.0000000000
       278        56  DCM       H2             -1.4933657241        1.5223116532       -1.0223814113  CLST      56              1.0000000000
       279        56  DCM       CL1            -1.0380595429        3.4685317682        0.2911035765  CLST      56              1.0000000000
       280        56  DCM       CL2            -0.2712606970        2.9588742344       -2.4901040565  CLST      56              1.0000000000
       281        57  DCM       C               0.2925156510        2.8053472986       -2.8737766840  CLST      57              1.0000000000
       282        57  DCM       H1              0.7446477377        3.0573092521       -3.8537162743  CLST      57              1.0000000000
       283        57  DCM       H2             -0.7175800295        3.2426765832       -2.7686250899  CLST      57              1.0000000000
       284        57  DCM       CL1             0.1642048684        1.0248444935       -2.7331280513  CLST      57              1.0000000000
       285        57  DCM       CL2             1.3406250595        3.4422554299       -1.5663908834  CLST      57              1.0000000000
       286        58  DCM       C               0.9856621566       -1.8619205359       -2.8697082354  CLST      58              1.0000000000
       287        58  DCM       H1              0.9392497226       -2.0322993260       -3.9652760901  CLST      58              1.0000000000
       288        58  DCM       H2              2.0213027109       -1.9992447271       -2.4896325730  CLST      58              1.0000000000
       289        58  DCM       CL1             0.4444983391       -0.1947231594       -2.5145031664  CLST      58              1.0000000000
       290        58  DCM       CL2            -0.0872059370       -3.0350926061       -2.0552369132  CLST      58              1.0000000000
       291        59  DCM       C              -2.1175012547       -1.6802878023        0.3586880621  CLST      59              1.0000000000
       292        59  DCM       H1             -2.1220892731       -2.5160979190       -0.3719797728  CLST      59              1.0000000000
       293        59  DCM       H2             -1.1963923692       -1.0688836707        0.2592497188  CLST      59              1.0000000000
       294        59  DCM       CL1            -3.5422518641       -0.6412794617        0.0644911228  CLST      59              1.0000000000
       295        59  DCM       CL2            -2.1970970015       -2.3554787533        2.0126889115  CLST      59              1.0000000000
       296        60  DCM       C               1.3116540873       -0.1667446838       -1.0596300285  CLST      60              1.0000000000
       297        60  DCM       H1              1.0921986834        0.8742521765       -0.7414213687  CLST      60              1.0000000000
       298        60  DCM       H2              0.3903694405       -0.6808712854       -1.4035290967  CLST      60              1.0000000000
       299        60  DCM       CL1             1.9931961101       -1.0708847819        0.3210501821  CLST      60              1.0000000000
       300        60  DCM       CL2             2.4938011243       -0.1257787139       -2.3977156143  CLST      60              1.0000000000
       301        61  DCM       C               1.5733465292        0.8490310640        2.7931124162  CLST      61              1.0000000000
       302        61  DCM       H1              1.0905013629        0.0836771134        2.1508399215  CLST      61              1.0000000000
       303        61  DCM       H2              2.3370077074        0.3897726014        3.4558539962  CLST      61              1.0000000000
       304        61  DCM       CL1             2.3645584346        2.0656634152        1.7491031182  CLST      61              1.0000000000
       305        61  DCM       CL2             0.3234323898        1.6341178301        3.8024372444  CLST      61              1.0000000000
       306        62  DCM       C              -2.9425462622        1.3769928734       -0.7917997336  CLST      62              1.0000000000
       307        62  DCM       H1             -2.0785302777        1.9787714810       -1.1367733193  CLST      62              1.0000000000
       308        62  DCM       H2             -3.4889012489        0.9391650765       -1.6503907338  CLST      62              1.0000000000
       309        62  DCM       CL1            -4.0590175956        2.4213028929        0.1303847561  CLST      62              1.0000000000
       310        62  DCM       CL2            -2.3473067144        0.0576946859        0.2515786653  CLST      62              1.0000000000
       311        63  DCM       C              -3.7599248378       -1.4821182097        0.9951301147  CLST      63              1.0000000000
       312        63  DCM       H1             -3.5121242925       -0.4883389935        0.5608885127  CLST      63              1.0000000000
       313        63  DCM       H2             -4.4975746753       -2.0202913226        0.3624719056  CLST      63              1.0000000000
       314        63  DCM       CL1            -2.2677399573       -2.4611205751        1.1022732936  CLST      63              1.0000000000
       315        63  DCM       CL2            -4.4506000101       -1.2492363462        2.6262252135  CLST      63              1.0000000000
       316        64  DCM       C               1.2484411613       -2.0754823821       -0.0329744658  CLST      64              1.0000000000
       317        64  DCM       H1              0.6287131992       -2.2123432563       -0.9444658747  CLST      64              1.0000000000
       318        64  DCM       H2              2.2444087345       -1.6555974607       -0.2853269494  CLST      64              1.0000000000
       319        64  DCM       CL1             0.4093476016       -0.9532761984        1.0754579610  CLST      64              1.0000000000
       320        64  DCM       CL2             1.4739198267       -3.6586337730        0.7649118269  CLST      64              1.0000000000
       321        65  DCM       C              -0.0445436069        2.0007584845        2.6899709423  CLST      65              1.0000000000
       322        65  DCM       H1              0.8328646245        2.6809353312        2.7272860203  CLST      65              1.0000000000
       323        65  DCM       H2             -0.5880182020        1.9938842010        3.6583340084  CLST      65              1.0000000000
       324        65  DCM       CL1            -1.1569717523        2.5566195935        1.4045358080  CLST      65              1.0000000000
       325        65  DCM       CL2             0.5215904594        0.3432492848        2.3321910601  CLST      65              1.0000000000
       326        66  DCM       C               1.0171009348       -0.3912258093        1.6045231964  CLST      66              1.0000000000
       327        66  DCM       H1              1.3171651362       -0.3066545482        0.5396150214  CLST      66              1.0000000000
       328        66  DCM       H2              1.2029789415       -1.4158290514        1.9878552962  CLST      66              1.0000000000
       329        66  DCM       CL1             1.9692951136        0.7671453388        2.5750382421  CLST      66              1.0000000000
       330        66  DCM       CL2            -0.7237182863       -0.0106551754        1.7466216342  CLST      66              1.0000000000
       331        67  DCM       C              -2.4896702020       -0.4017379437       -2.9117446971  CLST      67              1.0000000000
       332        67  DCM       H1             -2.6070557601        0.0517432942       -3.9171453605  CLST      67              1.0000000000
       333        67  DCM       H2             -3.4449485480       -0.3578197467       -2.3484388732  CLST      67              1.0000000000
       334        67  DCM       CL1            -1.9942041015       -2.1081035590       -3.1031042683  CLST      67              1.0000000000
       335        67  DCM       CL2            -1.2345872731        0.4917238247       -2.0065212225  CLST      67              1.0000000000
       336        68  DCM       C               0.1367252184       -0.0975419700        2.6188812942  CLST      68              1.0000000000
       337        68  DCM       H1             -0.5174137345        0.7675817619        2.3822066703  CLST      68              1.0000000000
       338        68  DCM       H2             -0.4174844215       -1.0554442170        2.5233775198  CLST      68              1.0000000000
       339        68  DCM       CL1             1.5184144698       -0.1052653428        1.4846459804  CLST      68              1.0000000000
       340        68  DCM       CL2             0.7308793708        0.0666680426        4.2964985247  CLST      68              1.0000000000
       341        69  DCM       C              -2.8089842248       -2.3430414823        2.8274065228  CLST      69              1.0000000000
       342        69  DCM       H1             -3.7820706514       -1.8507051776        2.6186765953  CLST      69              1.0000000000
       343        69  DCM       H2             -2.1640908195       -1.6982514327        3.4620316089  CLST      69              1.0000000000
       344        69  DCM       CL1            -3.1096294710       -3.8870226853        3.6775004562  CLST      69              1.0000000000
       345        69  DCM       CL2            -1.9756872054       -2.6567838908        1.2772712943  CLST      69              1.0000000000
       346        70  DCM       C              -0.6285637923       -0.9164942524       -2.9612688384  CLST      70              1.0000000000
       347        70  DCM       H1              0.1686542430       -0.2663312384       -3.3778108466  CLST      70              1.0000000000
       348        70  DCM       H2             -1.6072319506       -0.3937866665       -2.9534901003  CLST      70              1.0000000000
       349        70  DCM       CL1            -0.7692799601       -2.3847310328       -3.9688999550  CLST      70              1.0000000000
       350        70  DCM       CL2            -0.1968421554       -1.3638382780       -1.2870635877  CLST      70              1.0000000000
       351        71  DCM       C               0.4363294739       -1.8925526915        1.3101349668  CLST      71              1.0000000000
       352        71  DCM       H1              0.5306296031       -2.9808539435        1.1170127024  CLST      71              1.0000000000
       353        71  DCM       H2              1.4273804937       -1.4330720615        1.5040313017  CLST      71              1.0000000000
       354        71  DCM       CL1            -0.2993835086       -1.1092752351       -0.1188671453  CLST      71              1.0000000000
       355        71  DCM       CL2            -0.6090976793       -1.6440643863        2.7388605018  CLST      71              1.0000000000
       356        72  DCM       C               2.3640420840        0.1388757102       -1.9267464871  CLST      72              1.0000000000
       357        72  DCM       H1              1.3297811463        0.0106492232       -1.5480796657  CLST      72              1.0000000000
       358        72  DCM       H2              3.1040041155       -0.0296760163       -1.1171426499  CLST      72              1.0000000000
       359        72  DCM       CL1             2.6616977074       -1.0421423258       -3.2353130714  CLST      72              1.0000000000
       360        72  DCM       CL2             2.5481033655        1.8014861297       -2.5589596692  CLST      72              1.0000000000
       361        73  DCM       C               1.6179014373       -2.2433555681        0.8459551769  CLST      73              1.0000000000
       362        73  DCM       H1              2.3919420000       -2.1974130869        0.0469534169  CLST      73              1.0000000000
       363        73  DCM       H2              1.2220075372       -1.2330611945        1.0778035524  CLST      73              1.0000000000
       364        73  DCM       CL1             0.2778425526       -3.2852835286        0.2940609683  CLST      73              1.0000000000
       365        73  DCM       CL2             2.3566983570       -2.9362927448        2.3242211213  CLST      73              1.0000000000
       366        74  DCM       C              -2.5892624601        1.4839166224       -1.5444289011  CLST      74              1.0000000000
       367        74  DCM       H1             -1.8565788376        1.1423074862       -2.3059968865  CLST      74              1.0000000000
       368        74  DCM       H2             -2.2716444507        1.1827286639       -0.5246722918  CLST      74              1.0000000000
       369        74  DCM       CL1            -2.7138597138        3.2670026215       -1.6128019310  CLST      74              1.0000000000
       370        74  DCM       CL2            -4.1811904568        0.7500676723       -1.8954437158  CLST      74              1.0000000000
       371        75  DCM       C               0.3651287017       -3.1149759997       -1.6006279986  CLST      75              1.0000000000
       372        75  DCM       H1              0.6455315851       -4.1885629182       -1.5515712129  CLST      75              1.0000000000
       373        75  DCM       H2             -0.4307857019       -2.9446793386       -2.3563943828  CLST      75              1.0000000000
       374        75  DCM       CL1            -0.2335616558       -2.5967344987        0.0017954029  CLST      75              1.0000000000
       375        75  DCM       CL2             1.8072285825       -2.1572541824       -2.0464181012  CLST      75              1.0000000000
       376        76  DCM       C              -1.2611100810        0.5749947496        1.6730028881  CLST      76              1.0000000000
       377        76  DCM       H1             -0.9718794922        1.6461495522        1.7256258739  CLST      76              1.0000000000
       378        76  DCM       H2             -0.9402409282        0.0291024756        2.5856521065  CLST      76              1.0000000000
       379        76  DCM       CL1            -3.0385473838        0.4617025332        1.5197678581  CLST      76              1.0000000000
       380        76  DCM       CL2            -0.4797458270       -0.1673516233        0.2471649655  CLST      76              1.0000000000
       381        77  DCM       C              -1.0547608909       -2.6353120997        2.1463491139  CLST      77              1.0000000000
       382        77  DCM       H1             -1.5149734307       -2.4912022169        1.1460475914  CLST      77              1.0000000000
       383        77  DCM       H2             -1.4310002853       -3.5625980427        2.6284801653  CLST      77              1.0000000000
       384        77  DCM       CL1             0.7181472223       -2.7558081438        1.9567279961  CLST      77              1.0000000000
       385        77  DCM       CL2            -1.4588187800       -1.2334353065        3.1794116978  CLST      77              1.0000000000
       386        78  DCM       C              -0.0758599608        0.1086963855       -3.4524224727  CLST      78              1.0000000000
       387        78  DCM       H1             -1.1018152140       -0.2950925185       -3.5790495670  CLST      78              1.0000000000
       388        78  DCM       H2              0.6609488376       -0.7109871135       -3.3174949475  CLST      78              1.0000000000
       389        78  DCM       CL1             0.3572119522        1.0493863119       -4.9099493668  CLST      78              1.0000000000
       390        78  DCM       CL2            -0.0437031853        1.1674370150       -2.0126715503  CLST      78              1.0000000000
       391        79  DCM       C              -2.7033448950       -1.3513892199       -0.8899776732  CLST      79              1.0000000000
       392        79  DCM       H1             -2.5396626506       -1.2314786730       -1.9809103688  CLST      79              1.0000000000
       393        79  DCM       H2             -1.7581964103       -1.6064340213       -0.3697040345  CLST      79              1.0000000000
       394        79  DCM       CL1            -3.8874151141       -2.6649049730       -0.6207045537  CLST      79              1.0000000000
       395        79  DCM       CL2            -3.3294441355        0.1862825423       -0.2275489706  CLST      79              1.0000000000
       396        80  DCM       C               0.3413998962       -0.0601567676       -1.7576599855  CLST      80              1.0000000000
       397        80  DCM       H1             -0.4033810881       -0.1284014477       -2.5771995484  CLST      80              1.0000000000
       398        80  DCM       H2              0.2639019238       -0.9389153776       -1.0801586606  CLST      80              1.0000000000
       399        80  DCM       CL1             1.9870521264       -0.0146816531       -2.4569809578  CLST      80              1.0000000000
       400        80  DCM       CL2             0.0390381643        1.4317620240       -0.8216629230  CLST      80              1.0000000000
       401        81  DCM       C               1.3862366090        0.2656800627        0.7585410032  CLST      81              1.0000000000
       402        81  DCM       H1              0.3687529733        0.6802768618        0.9198662267  CLST      81              1.0000000000
       403        81  DCM       H2              2.0998622721        0.6476424039        1.5191416383  CLST      81              1.0000000000
       404        81  DCM       CL1             1.3121620065       -1.5166822089        0.8742835479  CLST      81              1.0000000000
       405        81  DCM       CL2             1.9578544160        0.7453505631       -0.8657614098  CLST      81              1.0000000000
       406        82  DCM       C              -2.9070836187        2.7899460790        0.8246700088  CLST      82              1.0000000000
       407        82  DCM       H1             -2.3543843889        2.1912753320        0.0700825708  CLST      82              1.0000000000
       408        82  DCM       H2             -3.1280158243        3.8098692914        0.4436361423  CLST      82              1.0000000000
       409        82  DCM       CL1            -4.4461561257        1.9642179819        1.2077460761  CLST      82              1.0000000000
       410        82  DCM       CL2            -1.9078479074        2.9245832484        2.3007192692  CLST      82              1.0000000000
       411        83  DCM       C               0.6628965797        3.0580239249        2.4239315829  CLST      83              1.0000000000
       412        83  DCM       H1              0.6949782656        3.7263754572        1.5390784521  CLST      83              1.0000000000
       413        83  DCM       H2              0.3772038782        3.6164230544        3.3404543724  CLST      83              1.0000000000
       414        83  DCM       CL1            -0.5371124679        1.7702949355        2.1312712513  CLST      83              1.0000000000
       415        83  DCM       CL2             2.2803723592        2.3395367404        2.6571690011  CLST      83              1.0000000000
       416        84  DCM       C              -1.5653688136        0.0597693866        2.3822850810  CLST      84              1.0000000000
       417        84  DCM       H1             -1.9307880958        0.8119098185        1.6527752538  CLST      84              1.0000000000
       418        84  DCM       H2             -2.4113656453       -0.4539293891        2.8868083518  CLST      84              1.0000000000
       419        84  DCM       CL1            -0.5767395088       -1.1549613914        1.5214205984  CLST      84              1.0000000000
       420        84  DCM       CL2            -0.5749005201        0.8838355737        3.6182144521  CLST      84              1.0000000000
       421        85  DCM       C              -2.1685350709        1.9081975848        2.6298848020  CLST      85              1.0000000000
       422        85  DCM       H1             -1.7554133073        1.2125747235        3.3908535232  CLST      85              1.0000000000
       423        85  DCM       H2             -1.6958519216        1.7438832494        1.6384726210  CLST      85              1.0000000000
       424        85  DCM       CL1            -3.9292027814        1.6331314058        2.4872572400  CLST      85              1.0000000000
       425        85  DCM       CL2            -1.8568278815        3.5898299662        3.1504092321  CLST      85              1.0000000000
       426        86  DCM       C              -1.3077215861       -3.3058848760       -0.9367765897  CLST      86              1.0000000000
       427        86  DCM       H1             -1.6056299344       -4.2240138112       -0.3871483932  CLST      86              1.0000000000
       428        86  DCM       H2             -1.3444914857       -3.4708522050       -2.0346374060  CLST      86              1.0000000000
       429        86  DCM       CL1            -2.4225912830       -1.9782882466       -0.5015609086  CLST      86              1.0000000000
       430        86  DCM       CL2             0.3582042877       -2.8671136348       -0.4716389824  CLST      86              1.0000000000
       431        87  DCM       C               2.9127976168       -1.2921033955       -3.8124719617  CLST      87              1.0000000000
       432        87  DCM       H1              3.1954394053       -0.3859262958       -3.2373309083  CLST      87              1.0000000000
       433        87  DCM       H2              1.8949897484       -1.6351495790       -3.5348278577  CLST      87              1.0000000000
       434        87  DCM       CL1             2.9472760489       -0.9073889528       -5.5580854626  CLST      87              1.0000000000
       435        87  DCM       CL2             4.0772930896       -2.5996897405       -3.4521197711  CLST      87              1.0000000000
       436        88  DCM       C              -1.5055456939       -2.4951448688       -0.5899155939  CLST      88              1.0000000000
       437        88  DCM       H1             -1.2432571322       -2.5554915791       -1.6675828449  CLST      88              1.0000000000
       438        88  DCM       H2             -2.1818862181       -1.6403003406       -0.3897899238  CLST      88              1.0000000000
       439        88  DCM       CL1            -2.3326618866       -4.0037063064       -0.1049047190  CLST      88              1.0000000000
       440        88  DCM       CL2            -0.0152380981       -2.2692880292        0.3660329097  CLST      88              1.0000000000
       441        89  DCM       C               1.0491351198       -1.7452192064       -0.2279777667  CLST      89              1.0000000000
       442        89  DCM       H1              0.3538289871       -0.8790411161       -0.1631823317  CLST      89              1.0000000000
       443        89  DCM       H2              2.0369587896       -1.4334351268       -0.6329209418  CLST      89              1.0000000000
       444        89  DCM       CL1             1.2824379860       -2.4238073986        1.4059247129  CLST      89              1.0000000000
       445        89  DCM       CL2             0.3406686271       -2.9850166780       -1.2996645783  CLST      89              1.0000000000
       446        90  DCM       C              -1.3312493256       -3.3726855019        1.5845400984  CLST      90              1.0000000000
       447        90  DCM       H1             -0.8198631849       -4.2303020692        2.0690641731  CLST      90              1.0000000000
       448        90  DCM       H2             -1.6413883420       -3.6283498873        0.5494178950  CLST      90              1.0000000000
       449        90  DCM       CL1            -2.7801669316       -2.9440070257        2.5406302726  CLST      90              1.0000000000
       450        90  DCM       CL2            -0.2037548510       -1.9876569228        1.5330681143  CLST      90              1.0000000000
       451        91  DCM       C               1.8223811486       -1.1424031001        1.5157739342  CLST      91              1.0000000000
       452        91  DCM       H1              2.1718953096       -0.2762475768        0.9150106551  CLST      91              1.0000000000
       453        91  DCM       H2              2.5626822452       -1.4175994500        2.2951730935  CLST      91              1.0000000000
       454        91  DCM       CL1             0.2767035038       -0.7142399135        2.3068129496  CLST      91              1.0000000000
       455        91  DCM       CL2             1.5779819221       -2.5379918308        0.4276138939  CLST      91              1.0000000000
       456        92  DCM       C               3.0783473974        1.2935829927        0.0476114541  CLST      92              1.0000000000
       457        92  DCM       H1              2.4474438619        2.1532993014       -0.2591833765  CLST      92              1.0000000000
       458        92  DCM       H2              3.0050156027        0.4634267848       -0.6862315044  CLST      92              1.0000000000
       459        92  DCM       CL1             4.7806128755        1.8288440851        0.1517333296  CLST      92              1.0000000000
       460        92  DCM       CL2             2.5283815072        0.7093946105        1.6448136519  CLST      92              1.0000000000
