* CHARMM CGENFF SD/ABNR BEFORE MLPOT (MM ONLY)
*  DATE:     6/28/26      2: 3:25      CREATED BY USER: boittier
*
       475  EXT
         1         1  DCM       C               1.2174317050       10.6905681636       -1.4801529809  CLST      1               1.0000000000
         2         1  DCM       H1              1.9177084243       10.2565289254       -0.7361476003  CLST      1               1.0000000000
         3         1  DCM       H2              0.2197415221       10.2092791910       -1.4183420447  CLST      1               1.0000000000
         4         1  DCM       CL1             1.0393369945       12.4386010603       -1.1583496656  CLST      1               1.0000000000
         5         1  DCM       CL2             1.8766401471       10.4376239012       -3.1203426898  CLST      1               1.0000000000
         6         2  DCM       C               0.0580046755        5.8397131922       -0.1577467172  CLST      2               1.0000000000
         7         2  DCM       H1              0.6187489463        5.1903560975        0.5478990700  CLST      2               1.0000000000
         8         2  DCM       H2              0.0445433053        5.4032420547       -1.1782352522  CLST      2               1.0000000000
         9         2  DCM       CL1            -1.6193029660        6.0135771916        0.4252087592  CLST      2               1.0000000000
        10         2  DCM       CL2             0.8373783854        7.4446261854       -0.2254808516  CLST      2               1.0000000000
        11         3  DCM       C               3.8671757139       -7.3670115108       -4.6177615512  CLST      3               1.0000000000
        12         3  DCM       H1              3.7697847959       -7.6083324933       -3.5380757356  CLST      3               1.0000000000
        13         3  DCM       H2              3.7112045481       -8.2711978313       -5.2424329188  CLST      3               1.0000000000
        14         3  DCM       CL1             2.6424277357       -6.1400459696       -5.0536742793  CLST      3               1.0000000000
        15         3  DCM       CL2             5.5053699469       -6.7237055818       -4.9238213300  CLST      3               1.0000000000
        16         4  DCM       C               7.4377972613        8.1804102376       -4.7028987163  CLST      4               1.0000000000
        17         4  DCM       H1              7.9714379825        7.4671448448       -4.0392909153  CLST      4               1.0000000000
        18         4  DCM       H2              6.3441243399        8.1491205238       -4.5223736876  CLST      4               1.0000000000
        19         4  DCM       CL1             7.7521299978        7.7461644619       -6.4067528730  CLST      4               1.0000000000
        20         4  DCM       CL2             8.0314925301        9.8347445399       -4.3837642259  CLST      4               1.0000000000
        21         5  DCM       C              -8.7888308684       -6.7747043923        8.5193302588  CLST      5               1.0000000000
        22         5  DCM       H1             -8.6883648047       -5.9798957167        7.7486622878  CLST      5               1.0000000000
        23         5  DCM       H2             -7.7964601255       -7.1952003497        8.7880996662  CLST      5               1.0000000000
        24         5  DCM       CL1            -9.5422859383       -6.0752193979        9.9807387623  CLST      5               1.0000000000
        25         5  DCM       CL2            -9.8236777362       -8.0805293535        7.8729810232  CLST      5               1.0000000000
        26         6  DCM       C               5.3466734301       10.2195070937       -1.9269297903  CLST      6               1.0000000000
        27         6  DCM       H1              6.4531509331       10.1279275742       -1.9092721025  CLST      6               1.0000000000
        28         6  DCM       H2              4.9633464199       10.2213685187       -2.9690680728  CLST      6               1.0000000000
        29         6  DCM       CL1             4.6349788601        8.8400001264       -1.0436225892  CLST      6               1.0000000000
        30         6  DCM       CL2             4.8819950168       11.7501404777       -1.1321021051  CLST      6               1.0000000000
        31         7  DCM       C               3.3031161579       -3.5638946573       -2.2809348930  CLST      7               1.0000000000
        32         7  DCM       H1              2.9441630195       -3.5748995012       -3.3308791543  CLST      7               1.0000000000
        33         7  DCM       H2              4.2661831512       -3.0185979698       -2.1952209719  CLST      7               1.0000000000
        34         7  DCM       CL1             2.0939178497       -2.7564400908       -1.2469700683  CLST      7               1.0000000000
        35         7  DCM       CL2             3.5481330808       -5.2406153386       -1.7262840046  CLST      7               1.0000000000
        36         8  DCM       C              -7.8006774632      -11.3110283267       -5.1070159528  CLST      8               1.0000000000
        37         8  DCM       H1             -8.2594049559      -11.7760701956       -6.0051851770  CLST      8               1.0000000000
        38         8  DCM       H2             -7.7438664291      -10.2077652034       -5.2174399883  CLST      8               1.0000000000
        39         8  DCM       CL1            -8.7948263437      -11.7030363371       -3.6745760423  CLST      8               1.0000000000
        40         8  DCM       CL2            -6.1503036996      -11.9593330150       -4.8893289346  CLST      8               1.0000000000
        41         9  DCM       C             -10.7662646509        3.1981017226       -6.7796441926  CLST      9               1.0000000000
        42         9  DCM       H1            -11.6151452871        2.8603910305       -6.1485599283  CLST      9               1.0000000000
        43         9  DCM       H2            -10.4323525740        4.2175020999       -6.4915317257  CLST      9               1.0000000000
        44         9  DCM       CL1            -9.4025310483        2.0600689024       -6.5751676008  CLST      9               1.0000000000
        45         9  DCM       CL2           -11.2866336347        3.2205661288       -8.4895746985  CLST      9               1.0000000000
        46        10  DCM       C               9.7631587216        5.3073107293       -8.5000729138  CLST      10              1.0000000000
        47        10  DCM       H1              8.8797779870        5.2908248717       -7.8266739985  CLST      10              1.0000000000
        48        10  DCM       H2              9.7016475745        4.4959366836       -9.2553674027  CLST      10              1.0000000000
        49        10  DCM       CL1             9.8257648753        6.8831281098       -9.3409978209  CLST      10              1.0000000000
        50        10  DCM       CL2            11.2441588819        5.0820208683       -7.5251595386  CLST      10              1.0000000000
        51        11  DCM       C               2.0910992086        4.9670796360       -9.8252592488  CLST      11              1.0000000000
        52        11  DCM       H1              1.9166271114        4.9594374155       -8.7300957004  CLST      11              1.0000000000
        53        11  DCM       H2              3.1594545304        5.1652345785      -10.0563106782  CLST      11              1.0000000000
        54        11  DCM       CL1             1.0825885479        6.2461084957      -10.5608978696  CLST      11              1.0000000000
        55        11  DCM       CL2             1.6300513850        3.3737003423      -10.4896910717  CLST      11              1.0000000000
        56        12  DCM       C              -2.5969616853        5.3025079911      -10.6371312315  CLST      12              1.0000000000
        57        12  DCM       H1             -1.8958856529        5.5416088360      -11.4654764726  CLST      12              1.0000000000
        58        12  DCM       H2             -3.6493361305        5.2905291618      -10.9930554512  CLST      12              1.0000000000
        59        12  DCM       CL1            -2.1897627186        3.6921536445       -9.9802194315  CLST      12              1.0000000000
        60        12  DCM       CL2            -2.4284983293        6.5403422958       -9.3593266701  CLST      12              1.0000000000
        61        13  DCM       C               3.7892214022        0.6305755398       -0.4747273846  CLST      13              1.0000000000
        62        13  DCM       H1              4.0072818432       -0.0568786911        0.3663398553  CLST      13              1.0000000000
        63        13  DCM       H2              4.2803120943        1.6126071737       -0.3293767747  CLST      13              1.0000000000
        64        13  DCM       CL1             4.4003410835       -0.1065958950       -1.9817398590  CLST      13              1.0000000000
        65        13  DCM       CL2             2.0205514324        0.8744437953       -0.5818052296  CLST      13              1.0000000000
        66        14  DCM       C             -11.5354374907       -1.9743739837       -6.0502239643  CLST      14              1.0000000000
        67        14  DCM       H1            -10.4434660113       -2.0624678708       -6.2359799396  CLST      14              1.0000000000
        68        14  DCM       H2            -12.0885075535       -2.8159473309       -6.5155088059  CLST      14              1.0000000000
        69        14  DCM       CL1           -11.8301821298       -1.9946993038       -4.2876419234  CLST      14              1.0000000000
        70        14  DCM       CL2           -12.1259132999       -0.4378584813       -6.7473745687  CLST      14              1.0000000000
        71        15  DCM       C               2.1347310017       -7.8428611497       -8.2749509940  CLST      15              1.0000000000
        72        15  DCM       H1              1.7438579854       -7.9951479601       -9.3031511284  CLST      15              1.0000000000
        73        15  DCM       H2              1.9986134724       -6.7901528373       -7.9494089578  CLST      15              1.0000000000
        74        15  DCM       CL1             1.2550989121       -8.9204481949       -7.1524755097  CLST      15              1.0000000000
        75        15  DCM       CL2             3.8784002820       -8.2343962893       -8.2506691921  CLST      15              1.0000000000
        76        16  DCM       C               5.9182588994        1.9225426060       -4.6658732506  CLST      16              1.0000000000
        77        16  DCM       H1              6.3145461465        2.5554740574       -5.4870034258  CLST      16              1.0000000000
        78        16  DCM       H2              4.9203003855        1.5119168987       -4.9235045993  CLST      16              1.0000000000
        79        16  DCM       CL1             7.0399833203        0.5649799440       -4.3779669192  CLST      16              1.0000000000
        80        16  DCM       CL2             5.7694607007        2.9105372896       -3.1851073413  CLST      16              1.0000000000
        81        17  DCM       C               2.6727715891        6.9504860144       -3.5772250817  CLST      17              1.0000000000
        82        17  DCM       H1              2.5563370245        7.7034647835       -4.3839063668  CLST      17              1.0000000000
        83        17  DCM       H2              2.4458454061        7.3961036020       -2.5874739393  CLST      17              1.0000000000
        84        17  DCM       CL1             1.5450551766        5.5981350731       -3.8772824688  CLST      17              1.0000000000
        85        17  DCM       CL2             4.3562296833        6.3509457270       -3.5711377817  CLST      17              1.0000000000
        86        18  DCM       C               4.7569395133       -4.7426683006        9.1794440388  CLST      18              1.0000000000
        87        18  DCM       H1              4.0475800534       -5.1630604841        8.4373726296  CLST      18              1.0000000000
        88        18  DCM       H2              4.2213553080       -4.3859452380       10.0845696958  CLST      18              1.0000000000
        89        18  DCM       CL1             5.9229239299       -6.0128641655        9.6508146678  CLST      18              1.0000000000
        90        18  DCM       CL2             5.6234186495       -3.3676332471        8.4355286820  CLST      18              1.0000000000
        91        19  DCM       C              -4.7656982567      -10.1854953300       -7.8674684229  CLST      19              1.0000000000
        92        19  DCM       H1             -4.4465977337      -10.7156553507       -6.9468250182  CLST      19              1.0000000000
        93        19  DCM       H2             -3.9839273041      -10.2422241909       -8.6527072374  CLST      19              1.0000000000
        94        19  DCM       CL1            -6.2668101023      -10.9386271811       -8.4832263077  CLST      19              1.0000000000
        95        19  DCM       CL2            -5.0675082803       -8.4692468773       -7.4700137368  CLST      19              1.0000000000
        96        20  DCM       C               8.0202506181        1.4122870196       -7.9834372543  CLST      20              1.0000000000
        97        20  DCM       H1              8.3684662716        0.8550945628       -8.8785939070  CLST      20              1.0000000000
        98        20  DCM       H2              7.3507860476        0.7830884702       -7.3597760717  CLST      20              1.0000000000
        99        20  DCM       CL1             9.4402814383        1.8972102693       -7.0124921497  CLST      20              1.0000000000
       100        20  DCM       CL2             7.1247437172        2.8652361621       -8.5101603523  CLST      20              1.0000000000
       101        21  DCM       C              -0.7857127086       -3.5441259707        1.0155172956  CLST      21              1.0000000000
       102        21  DCM       H1              0.2382236068       -3.8150114236        0.6980903783  CLST      21              1.0000000000
       103        21  DCM       H2             -0.8564755883       -3.4973447283        2.1253711355  CLST      21              1.0000000000
       104        21  DCM       CL1            -1.2068503544       -1.9416457129        0.3449370191  CLST      21              1.0000000000
       105        21  DCM       CL2            -1.9310026347       -4.7780246203        0.4159780704  CLST      21              1.0000000000
       106        22  DCM       C               4.1856686025       -6.4626763409        4.9530084092  CLST      22              1.0000000000
       107        22  DCM       H1              4.8223645684       -6.9533694151        4.1872214229  CLST      22              1.0000000000
       108        22  DCM       H2              3.1238904286       -6.4271912103        4.6259840627  CLST      22              1.0000000000
       109        22  DCM       CL1             4.2950374861       -7.3877653662        6.4780238755  CLST      22              1.0000000000
       110        22  DCM       CL2             4.7718532377       -4.7936130816        5.2148134443  CLST      22              1.0000000000
       111        23  DCM       C              10.1581656971       -1.2949140908       -5.3604324421  CLST      23              1.0000000000
       112        23  DCM       H1             10.2146412439       -2.0790985061       -4.5766340671  CLST      23              1.0000000000
       113        23  DCM       H2              9.9294600646       -0.3024180357       -4.9172575642  CLST      23              1.0000000000
       114        23  DCM       CL1             8.8711088891       -1.7268285496       -6.5238246165  CLST      23              1.0000000000
       115        23  DCM       CL2            11.7304762846       -1.2052965529       -6.2041529599  CLST      23              1.0000000000
       116        24  DCM       C             -10.4289317258       -6.1133330292       -4.6936315703  CLST      24              1.0000000000
       117        24  DCM       H1             -9.8003014275       -7.0179891792       -4.8280822843  CLST      24              1.0000000000
       118        24  DCM       H2            -11.2857965647       -6.3197332383       -4.0182709949  CLST      24              1.0000000000
       119        24  DCM       CL1            -9.4277308307       -4.8134834112       -3.9855952779  CLST      24              1.0000000000
       120        24  DCM       CL2           -11.0506928550       -5.6009490473       -6.2879676947  CLST      24              1.0000000000
       121        25  DCM       C               5.0415014384       10.0261464974       -7.3680646523  CLST      25              1.0000000000
       122        25  DCM       H1              4.6082703640       10.9435339641       -7.8196862525  CLST      25              1.0000000000
       123        25  DCM       H2              6.1241401025       10.1547700619       -7.1632469105  CLST      25              1.0000000000
       124        25  DCM       CL1             4.8268371808        8.6600786328       -8.5008378747  CLST      25              1.0000000000
       125        25  DCM       CL2             4.2057790571        9.6797465079       -5.8276151441  CLST      25              1.0000000000
       126        26  DCM       C              12.9736587373      -13.0922753450       -8.6914866111  CLST      26              1.0000000000
       127        26  DCM       H1             12.5902476520      -12.8329610723       -9.7010209202  CLST      26              1.0000000000
       128        26  DCM       H2             13.8693919222      -13.7453752082       -8.7586526853  CLST      26              1.0000000000
       129        26  DCM       CL1            13.4150195973      -11.5870122336       -7.8332223753  CLST      26              1.0000000000
       130        26  DCM       CL2            11.6935912394      -13.9532727933       -7.7875734598  CLST      26              1.0000000000
       131        27  DCM       C             -10.3493314994       -0.0214286035      -10.0785532871  CLST      27              1.0000000000
       132        27  DCM       H1            -11.1194592168        0.4345783461       -9.4216313244  CLST      27              1.0000000000
       133        27  DCM       H2            -10.7860365736       -0.8369553763      -10.6950510580  CLST      27              1.0000000000
       134        27  DCM       CL1            -9.6856463729        1.2354665596      -11.1612374184  CLST      27              1.0000000000
       135        27  DCM       CL2            -9.0446935368       -0.6946661073       -9.0612465980  CLST      27              1.0000000000
       136        28  DCM       C              -0.4671042048      -10.0244624700       -0.1507887668  CLST      28              1.0000000000
       137        28  DCM       H1              0.5722514703       -9.8267912259       -0.4863659692  CLST      28              1.0000000000
       138        28  DCM       H2             -0.5218491978      -10.0965391129        0.9560933469  CLST      28              1.0000000000
       139        28  DCM       CL1            -1.5194469052       -8.6864121913       -0.7000569741  CLST      28              1.0000000000
       140        28  DCM       CL2            -1.0170915966      -11.5676933088       -0.8657123530  CLST      28              1.0000000000
       141        29  DCM       C              -6.9936879560       -8.2871437811       -2.8654068804  CLST      29              1.0000000000
       142        29  DCM       H1             -6.3840741080       -7.7451073919       -2.1121914263  CLST      29              1.0000000000
       143        29  DCM       H2             -6.6395065824       -9.3319590738       -2.9879514956  CLST      29              1.0000000000
       144        29  DCM       CL1            -8.6994729824       -8.3118311908       -2.3327132854  CLST      29              1.0000000000
       145        29  DCM       CL2            -6.8605729753       -7.4456844187       -4.4356905779  CLST      29              1.0000000000
       146        30  DCM       C              -2.5042800851        8.5556106387       -2.4335135362  CLST      30              1.0000000000
       147        30  DCM       H1             -2.5141847891        8.2503045187       -1.3651385298  CLST      30              1.0000000000
       148        30  DCM       H2             -3.3772823220        8.1342950191       -2.9761790105  CLST      30              1.0000000000
       149        30  DCM       CL1            -2.5631361492       10.3383498992       -2.5317591875  CLST      30              1.0000000000
       150        30  DCM       CL2            -1.0036228764        7.9579304196       -3.1941334522  CLST      30              1.0000000000
       151        31  DCM       C              -7.8269465542       -3.0171216258        6.4796434611  CLST      31              1.0000000000
       152        31  DCM       H1             -7.5185557841       -1.9849702859        6.2118182379  CLST      31              1.0000000000
       153        31  DCM       H2             -8.7891530060       -3.2771576740        5.9912036211  CLST      31              1.0000000000
       154        31  DCM       CL1            -6.5706919761       -4.1684354197        5.9411826757  CLST      31              1.0000000000
       155        31  DCM       CL2            -8.0243572403       -3.1267020306        8.2515979771  CLST      31              1.0000000000
       156        32  DCM       C              -6.2825496608        2.1418760132        4.7664944411  CLST      32              1.0000000000
       157        32  DCM       H1             -5.5168180037        1.4610118200        4.3382468296  CLST      32              1.0000000000
       158        32  DCM       H2             -6.6219234366        2.8812084223        4.0110249100  CLST      32              1.0000000000
       159        32  DCM       CL1            -7.6901233372        1.1787036892        5.3026815925  CLST      32              1.0000000000
       160        32  DCM       CL2            -5.5723422646        3.0116769699        6.1594267041  CLST      32              1.0000000000
       161        33  DCM       C              -5.2776283166      -11.6115559040       12.6469686594  CLST      33              1.0000000000
       162        33  DCM       H1             -5.2133065401      -10.7635453344       11.9327879381  CLST      33              1.0000000000
       163        33  DCM       H2             -4.2666063582      -11.9587757226       12.9479643990  CLST      33              1.0000000000
       164        33  DCM       CL1            -6.1671761683      -11.0795879133       14.1037604312  CLST      33              1.0000000000
       165        33  DCM       CL2            -6.1488977559      -12.9639209908       11.8670649901  CLST      33              1.0000000000
       166        34  DCM       C              -7.5499009370        3.9504317801       -9.2951149096  CLST      34              1.0000000000
       167        34  DCM       H1             -6.4809083252        3.6523761039       -9.2521143039  CLST      34              1.0000000000
       168        34  DCM       H2             -8.2134933965        3.0827304683       -9.0937673815  CLST      34              1.0000000000
       169        34  DCM       CL1            -7.9132645795        4.5879685004      -10.9243386196  CLST      34              1.0000000000
       170        34  DCM       CL2            -7.8520721364        5.2172207381       -8.0704330993  CLST      34              1.0000000000
       171        35  DCM       C               9.8900264471        4.2256309354       -3.9876400436  CLST      35              1.0000000000
       172        35  DCM       H1             10.0328346550        4.9977899497       -3.2024151291  CLST      35              1.0000000000
       173        35  DCM       H2             10.7510612942        4.2038829880       -4.6885395694  CLST      35              1.0000000000
       174        35  DCM       CL1             9.7345736266        2.6259400268       -3.2080102738  CLST      35              1.0000000000
       175        35  DCM       CL2             8.4039618718        4.6019715444       -4.9053383338  CLST      35              1.0000000000
       176        36  DCM       C               3.8287183335        5.3786077561        0.1451065863  CLST      36              1.0000000000
       177        36  DCM       H1              4.9305554769        5.3791123248        0.0244928388  CLST      36              1.0000000000
       178        36  DCM       H2              3.4173757278        6.3890951384       -0.0487452511  CLST      36              1.0000000000
       179        36  DCM       CL1             3.4137170578        4.8904517986        1.8125418744  CLST      36              1.0000000000
       180        36  DCM       CL2             3.1167084828        4.2223708864       -1.0129160562  CLST      36              1.0000000000
       181        37  DCM       C              10.1463322901      -11.6766203464        7.3578153207  CLST      37              1.0000000000
       182        37  DCM       H1              9.9440966708      -10.5859076645        7.3843801761  CLST      37              1.0000000000
       183        37  DCM       H2              9.6685397744      -12.1483826502        6.4729773322  CLST      37              1.0000000000
       184        37  DCM       CL1             9.4906432820      -12.4206644206        8.8444847320  CLST      37              1.0000000000
       185        37  DCM       CL2            11.9130335869      -11.9314025536        7.2741265699  CLST      37              1.0000000000
       186        38  DCM       C              -6.4127418110        6.6316296247        7.5179255702  CLST      38              1.0000000000
       187        38  DCM       H1             -5.9696866834        6.3701555111        6.5375066267  CLST      38              1.0000000000
       188        38  DCM       H2             -7.4939326975        6.3705296313        7.5516304060  CLST      38              1.0000000000
       189        38  DCM       CL1            -5.5601129812        5.7249175691        8.8023778046  CLST      38              1.0000000000
       190        38  DCM       CL2            -6.2325309947        8.3887409791        7.7982049130  CLST      38              1.0000000000
       191        39  DCM       C              -7.2145260260       -5.1003762550       -7.1183869404  CLST      39              1.0000000000
       192        39  DCM       H1             -6.3330628435       -5.1472413054       -6.4447024865  CLST      39              1.0000000000
       193        39  DCM       H2             -7.9844210055       -5.8416720510       -6.8194304534  CLST      39              1.0000000000
       194        39  DCM       CL1            -7.9295636633       -3.4653798666       -7.0343754748  CLST      39              1.0000000000
       195        39  DCM       CL2            -6.6892415633       -5.4481516481       -8.7906644023  CLST      39              1.0000000000
       196        40  DCM       C              -8.1638086592       -9.6419596041       11.0442327476  CLST      40              1.0000000000
       197        40  DCM       H1             -9.1559853659       -9.2360909869       10.7530409385  CLST      40              1.0000000000
       198        40  DCM       H2             -8.2704316039      -10.4698468066       11.7780715993  CLST      40              1.0000000000
       199        40  DCM       CL1            -7.3358196022      -10.2600066379        9.5855736818  CLST      40              1.0000000000
       200        40  DCM       CL2            -7.1928439039       -8.3332330293       11.7786383110  CLST      40              1.0000000000
       201        41  DCM       C              -2.8798161073        7.3569981126        6.4093308873  CLST      41              1.0000000000
       202        41  DCM       H1             -3.4786452665        7.3290569594        7.3430527450  CLST      41              1.0000000000
       203        41  DCM       H2             -1.8985656011        7.8423104924        6.5885304212  CLST      41              1.0000000000
       204        41  DCM       CL1            -2.6100661703        5.6849033540        5.8427070751  CLST      41              1.0000000000
       205        41  DCM       CL2            -3.7663259301        8.2851511592        5.1658555936  CLST      41              1.0000000000
       206        42  DCM       C              -1.9298063158        4.2817633546        9.2018475887  CLST      42              1.0000000000
       207        42  DCM       H1             -2.0618803687        3.5764502802       10.0508658507  CLST      42              1.0000000000
       208        42  DCM       H2             -2.7201945239        4.1312017313        8.4344550776  CLST      42              1.0000000000
       209        42  DCM       CL1            -2.0203952610        5.9565768922        9.8153145910  CLST      42              1.0000000000
       210        42  DCM       CL2            -0.3312036206        3.9977166616        8.4539811590  CLST      42              1.0000000000
       211        43  DCM       C               8.0330657262        4.1597437679        0.0018627591  CLST      43              1.0000000000
       212        43  DCM       H1              8.3441873578        4.7088681244        0.9155257629  CLST      43              1.0000000000
       213        43  DCM       H2              8.8504411551        3.5033279934       -0.3660149981  CLST      43              1.0000000000
       214        43  DCM       CL1             7.6102967416        5.3410766030       -1.2723928665  CLST      43              1.0000000000
       215        43  DCM       CL2             6.6115085626        3.1517123602        0.3946067943  CLST      43              1.0000000000
       216        44  DCM       C              11.6647844314       -8.4916241081        5.4680185644  CLST      44              1.0000000000
       217        44  DCM       H1             12.4873190370       -9.2169873900        5.6440925592  CLST      44              1.0000000000
       218        44  DCM       H2             12.0027468036       -7.6489042537        4.8278610024  CLST      44              1.0000000000
       219        44  DCM       CL1            11.1194591382       -7.8410249474        7.0400756473  CLST      44              1.0000000000
       220        44  DCM       CL2            10.3112668295       -9.3301735359        4.6554765770  CLST      44              1.0000000000
       221        45  DCM       C              -3.1743133480       10.7332648758        8.1428534954  CLST      45              1.0000000000
       222        45  DCM       H1             -3.4721415945       11.6710404741        8.6588790672  CLST      45              1.0000000000
       223        45  DCM       H2             -3.9889893149       10.3624559600        7.4864406083  CLST      45              1.0000000000
       224        45  DCM       CL1            -1.7255356859       11.0503594868        7.1464875038  CLST      45              1.0000000000
       225        45  DCM       CL2            -2.8016834014        9.4892340790        9.3702864072  CLST      45              1.0000000000
       226        46  DCM       C               7.9554080955       -6.0433321753        6.5316248279  CLST      46              1.0000000000
       227        46  DCM       H1              8.3765966910       -6.8903687221        7.1100645331  CLST      46              1.0000000000
       228        46  DCM       H2              6.9130200665       -5.8310618459        6.8462732629  CLST      46              1.0000000000
       229        46  DCM       CL1             8.9534804608       -4.5900775086        6.8196488040  CLST      46              1.0000000000
       230        46  DCM       CL2             7.9715598595       -6.4580458326        4.7924771701  CLST      46              1.0000000000
       231        47  DCM       C               1.6224154364      -10.3607522687       -3.6296904644  CLST      47              1.0000000000
       232        47  DCM       H1              2.0509601235      -10.4167611950       -4.6529513973  CLST      47              1.0000000000
       233        47  DCM       H2              0.8694349384      -11.1607119961       -3.4675580796  CLST      47              1.0000000000
       234        47  DCM       CL1             2.9388752192      -10.5464072848       -2.4361126178  CLST      47              1.0000000000
       235        47  DCM       CL2             0.8376846241       -8.7712509247       -3.4134646033  CLST      47              1.0000000000
       236        48  DCM       C               0.8817492832        8.8226882953        9.0679244978  CLST      48              1.0000000000
       237        48  DCM       H1              0.6197088489        9.8142806745        8.6452938427  CLST      48              1.0000000000
       238        48  DCM       H2              0.2510603635        8.5827447997        9.9503457277  CLST      48              1.0000000000
       239        48  DCM       CL1             0.6269971836        7.5718128355        7.8177645824  CLST      48              1.0000000000
       240        48  DCM       CL2             2.5992417448        8.8384382184        9.5640745649  CLST      48              1.0000000000
       241        49  DCM       C              10.2765351145       10.1259703040        4.6612713632  CLST      49              1.0000000000
       242        49  DCM       H1              9.8045635014        9.1354570105        4.8232569395  CLST      49              1.0000000000
       243        49  DCM       H2              9.6909372375       10.9329919784        5.1505787213  CLST      49              1.0000000000
       244        49  DCM       CL1            11.9242883906       10.0949814483        5.3526259175  CLST      49              1.0000000000
       245        49  DCM       CL2            10.3614068037       10.4436761899        2.9044476311  CLST      49              1.0000000000
       246        50  DCM       C              10.7203468651       -5.1118003407       -6.0782914639  CLST      50              1.0000000000
       247        50  DCM       H1             11.1976361994       -6.1089248701       -5.9717395697  CLST      50              1.0000000000
       248        50  DCM       H2             11.3060239095       -4.3286777104       -5.5524425129  CLST      50              1.0000000000
       249        50  DCM       CL1            10.6264493782       -4.6960187340       -7.8143472610  CLST      50              1.0000000000
       250        50  DCM       CL2             9.0760741242       -5.1780413019       -5.3798218372  CLST      50              1.0000000000
       251        51  DCM       C               3.6804209272        4.2096170311       -6.3843651925  CLST      51              1.0000000000
       252        51  DCM       H1              3.8958135439        3.9601444484       -5.3246967083  CLST      51              1.0000000000
       253        51  DCM       H2              2.6953238167        4.7118090846       -6.4754058702  CLST      51              1.0000000000
       254        51  DCM       CL1             4.9530693063        5.3071970591       -6.9903711711  CLST      51              1.0000000000
       255        51  DCM       CL2             3.6602340908        2.7065408323       -7.3515078767  CLST      51              1.0000000000
       256        52  DCM       C              -1.7596691585       -6.8621845276       -5.8906404532  CLST      52              1.0000000000
       257        52  DCM       H1             -2.1027526582       -7.6926333166       -6.5425868526  CLST      52              1.0000000000
       258        52  DCM       H2             -1.2079751168       -7.2494454464       -5.0089832800  CLST      52              1.0000000000
       259        52  DCM       CL1            -0.6782330654       -5.7924320495       -6.8310077727  CLST      52              1.0000000000
       260        52  DCM       CL2            -3.1856795962       -5.9407349194       -5.3284136402  CLST      52              1.0000000000
       261        53  DCM       C             -10.1144203408       -4.3365816475      -10.1456973516  CLST      53              1.0000000000
       262        53  DCM       H1            -10.1568771917       -4.1745313648      -11.2435392162  CLST      53              1.0000000000
       263        53  DCM       H2             -9.1756564902       -3.9251228297       -9.7182264704  CLST      53              1.0000000000
       264        53  DCM       CL1           -11.5087824985       -3.5199584716       -9.3820057402  CLST      53              1.0000000000
       265        53  DCM       CL2           -10.1861776910       -6.0920400340       -9.8164784614  CLST      53              1.0000000000
       266        54  DCM       C               3.3998578535       10.3078708497        2.2810962464  CLST      54              1.0000000000
       267        54  DCM       H1              3.9289840448       10.6766195821        3.1844896242  CLST      54              1.0000000000
       268        54  DCM       H2              3.9373683405       10.6004174627        1.3558466858  CLST      54              1.0000000000
       269        54  DCM       CL1             3.2932589604        8.5263754441        2.3547742663  CLST      54              1.0000000000
       270        54  DCM       CL2             1.7590807354       11.0111004776        2.2445574340  CLST      54              1.0000000000
       271        55  DCM       C              11.5138649259        8.3696272845       -6.1414108055  CLST      55              1.0000000000
       272        55  DCM       H1             12.4231387152        7.8990811868       -6.5730460660  CLST      55              1.0000000000
       273        55  DCM       H2             10.6607708428        8.3060830855       -6.8483340313  CLST      55              1.0000000000
       274        55  DCM       CL1            11.0803881432        7.5200677328       -4.6297238817  CLST      55              1.0000000000
       275        55  DCM       CL2            11.8554340430       10.0887690161       -5.7921006355  CLST      55              1.0000000000
       276        56  DCM       C               2.1612569150       11.1969698036        6.0470764039  CLST      56              1.0000000000
       277        56  DCM       H1              1.0610607760       11.1043469944        6.1597941647  CLST      56              1.0000000000
       278        56  DCM       H2              2.4219160302       11.8095180196        5.1595222659  CLST      56              1.0000000000
       279        56  DCM       CL1             2.8328796322       11.9721432357        7.5101291680  CLST      56              1.0000000000
       280        56  DCM       CL2             2.8599301073        9.5646258996        5.8533665475  CLST      56              1.0000000000
       281        57  DCM       C              11.6061307847        6.7156878382        3.3258053348  CLST      57              1.0000000000
       282        57  DCM       H1             12.4193860637        6.0124546618        3.0475352614  CLST      57              1.0000000000
       283        57  DCM       H2             11.9789790932        7.7610780180        3.3658242732  CLST      57              1.0000000000
       284        57  DCM       CL1            10.3029025466        6.6091558611        2.1084214881  CLST      57              1.0000000000
       285        57  DCM       CL2            10.9691875415        6.2603677205        4.9323016198  CLST      57              1.0000000000
       286        58  DCM       C              -5.4419579794       -0.3093481389        7.8500951934  CLST      58              1.0000000000
       287        58  DCM       H1             -6.5512101720       -0.2805760660        7.8308191814  CLST      58              1.0000000000
       288        58  DCM       H2             -5.0220373723        0.6969689558        8.0577463540  CLST      58              1.0000000000
       289        58  DCM       CL1            -4.9110007014       -1.4363209562        9.1311720941  CLST      58              1.0000000000
       290        58  DCM       CL2            -4.8456634898       -0.8711626975        6.2610970757  CLST      58              1.0000000000
       291        59  DCM       C               6.0851558978        8.3817391604        5.3688825357  CLST      59              1.0000000000
       292        59  DCM       H1              5.4807317389        7.8162176146        4.6274677212  CLST      59              1.0000000000
       293        59  DCM       H2              5.5527894378        8.4569720263        6.3409672577  CLST      59              1.0000000000
       294        59  DCM       CL1             7.6349854853        7.5354012615        5.6284265671  CLST      59              1.0000000000
       295        59  DCM       CL2             6.3950864822       10.0283792449        4.7440486237  CLST      59              1.0000000000
       296        60  DCM       C              11.9578084888       -9.5700408431       10.2124656323  CLST      60              1.0000000000
       297        60  DCM       H1             11.7034101514       -8.6897277949       10.8394540055  CLST      60              1.0000000000
       298        60  DCM       H2             11.1949316594       -9.7308741051        9.4230853072  CLST      60              1.0000000000
       299        60  DCM       CL1            13.5449173508       -9.2966801438        9.4361411861  CLST      60              1.0000000000
       300        60  DCM       CL2            12.0303223062      -11.0251379373       11.2476227964  CLST      60              1.0000000000
       301        61  DCM       C             -11.4635282883       -5.5370422646        5.5845565977  CLST      61              1.0000000000
       302        61  DCM       H1            -11.8941659749       -6.5183007432        5.8796331901  CLST      61              1.0000000000
       303        61  DCM       H2            -12.0988609036       -5.0337031180        4.8236786912  CLST      61              1.0000000000
       304        61  DCM       CL1           -11.3529551061       -4.4938064892        7.0311970272  CLST      61              1.0000000000
       305        61  DCM       CL2            -9.8355216476       -5.8020857303        4.8965129403  CLST      61              1.0000000000
       306        62  DCM       C               6.1662118610       -4.0846400643        1.3344535999  CLST      62              1.0000000000
       307        62  DCM       H1              6.9006199566       -4.5963834668        0.6791161588  CLST      62              1.0000000000
       308        62  DCM       H2              6.6243052816       -3.8019692161        2.3069761516  CLST      62              1.0000000000
       309        62  DCM       CL1             5.5818085248       -2.6091548447        0.5122750268  CLST      62              1.0000000000
       310        62  DCM       CL2             4.7941827241       -5.1888404276        1.6356088139  CLST      62              1.0000000000
       311        63  DCM       C              -5.5890031822      -11.8499179734       -1.1183587815  CLST      63              1.0000000000
       312        63  DCM       H1             -6.3888126187      -11.6811850169       -1.8695031679  CLST      63              1.0000000000
       313        63  DCM       H2             -6.0061982361      -12.2675704836       -0.1778824410  CLST      63              1.0000000000
       314        63  DCM       CL1            -4.3969689466      -13.0020467034       -1.7863779311  CLST      63              1.0000000000
       315        63  DCM       CL2            -4.7901058788      -10.2926840201       -0.7583726062  CLST      63              1.0000000000
       316        64  DCM       C              -4.2645929871        5.3144699457        2.5877454995  CLST      64              1.0000000000
       317        64  DCM       H1             -4.5403024981        5.4370782048        1.5172765477  CLST      64              1.0000000000
       318        64  DCM       H2             -3.4567028980        6.0196077186        2.8735194078  CLST      64              1.0000000000
       319        64  DCM       CL1            -5.6999169322        5.6400348685        3.5991677722  CLST      64              1.0000000000
       320        64  DCM       CL2            -3.6878321556        3.6423721311        2.8520558397  CLST      64              1.0000000000
       321        65  DCM       C              -8.0318077021        8.9912364726       -7.7862658163  CLST      65              1.0000000000
       322        65  DCM       H1             -7.7481905027        8.2943367325       -8.6004281656  CLST      65              1.0000000000
       323        65  DCM       H2             -9.0924335259        8.8499998733       -7.4899268062  CLST      65              1.0000000000
       324        65  DCM       CL1            -6.9881960326        8.6859786355       -6.3671365729  CLST      65              1.0000000000
       325        65  DCM       CL2            -7.8085669760       10.6719460383       -8.3542020543  CLST      65              1.0000000000
       326        66  DCM       C              -0.7545854641       -3.7844983985       -3.2673204713  CLST      66              1.0000000000
       327        66  DCM       H1             -1.7831361965       -3.9190296958       -3.6627174966  CLST      66              1.0000000000
       328        66  DCM       H2             -0.7490656059       -3.0888578560       -2.4018375312  CLST      66              1.0000000000
       329        66  DCM       CL1            -0.1221210866       -5.3705682521       -2.7398838053  CLST      66              1.0000000000
       330        66  DCM       CL2             0.2840742989       -3.1159937552       -4.5600600993  CLST      66              1.0000000000
       331        67  DCM       C              -0.8595133837       -0.4220196799        4.1205706842  CLST      67              1.0000000000
       332        67  DCM       H1             -1.7833497183       -0.4245134190        4.7373735469  CLST      67              1.0000000000
       333        67  DCM       H2             -0.7252353459       -1.3933487251        3.5995091233  CLST      67              1.0000000000
       334        67  DCM       CL1            -0.9763295366        0.8786730838        2.9009768622  CLST      67              1.0000000000
       335        67  DCM       CL2             0.5505774091       -0.1310561123        5.1792222994  CLST      67              1.0000000000
       336        68  DCM       C               9.0411867660       11.1018558727       -7.8741340136  CLST      68              1.0000000000
       337        68  DCM       H1             10.0122258589       11.5328717602       -8.1976638875  CLST      68              1.0000000000
       338        68  DCM       H2              9.1840016060       10.3641836628       -7.0579911060  CLST      68              1.0000000000
       339        68  DCM       CL1             7.9856880963       12.4182743495       -7.2838164962  CLST      68              1.0000000000
       340        68  DCM       CL2             8.2733778382       10.2816858572       -9.2639903742  CLST      68              1.0000000000
       341        69  DCM       C             -11.3272622403       11.0415634851      -10.0028102503  CLST      69              1.0000000000
       342        69  DCM       H1            -11.4979503460       12.1386301936      -10.0287662463  CLST      69              1.0000000000
       343        69  DCM       H2            -10.2865935185       10.7916719836      -10.2993801471  CLST      69              1.0000000000
       344        69  DCM       CL1           -11.6163550429       10.4485118398       -8.3414710602  CLST      69              1.0000000000
       345        69  DCM       CL2           -12.4620118245       10.2489595243      -11.1346904898  CLST      69              1.0000000000
       346        70  DCM       C              -9.5132966276        8.7627537387        9.4558079221  CLST      70              1.0000000000
       347        70  DCM       H1            -10.4056896730        9.1478853447        9.9926626351  CLST      70              1.0000000000
       348        70  DCM       H2             -8.6964561078        9.5151784342        9.4452345383  CLST      70              1.0000000000
       349        70  DCM       CL1            -8.9302167368        7.2863906888       10.2790277467  CLST      70              1.0000000000
       350        70  DCM       CL2            -9.9690675664        8.3762636916        7.7703524230  CLST      70              1.0000000000
       351        71  DCM       C             -10.5145046991       -9.1283815594       -7.4325909968  CLST      71              1.0000000000
       352        71  DCM       H1            -10.5787944640      -10.0236952850       -8.0865223495  CLST      71              1.0000000000
       353        71  DCM       H2            -11.1700239891       -8.3130784693       -7.8057569845  CLST      71              1.0000000000
       354        71  DCM       CL1           -11.0232461145       -9.5753915891       -5.7782938241  CLST      71              1.0000000000
       355        71  DCM       CL2            -8.8249289855       -8.5486928370       -7.4073205761  CLST      71              1.0000000000
       356        72  DCM       C               1.6064793260        0.2871002319       -4.2552589803  CLST      72              1.0000000000
       357        72  DCM       H1              1.5146331328       -0.2090162405       -3.2655913105  CLST      72              1.0000000000
       358        72  DCM       H2              0.6473682892        0.2406062220       -4.8120043870  CLST      72              1.0000000000
       359        72  DCM       CL1             2.8728653610       -0.5434424887       -5.2025633290  CLST      72              1.0000000000
       360        72  DCM       CL2             2.0624686335        1.9976497186       -4.0115318162  CLST      72              1.0000000000
       361        73  DCM       C              -2.4468124248      -10.5194959352       -4.0601281707  CLST      73              1.0000000000
       362        73  DCM       H1             -1.7056143188      -10.1748160199       -3.3104945470  CLST      73              1.0000000000
       363        73  DCM       H2             -2.8591856123      -11.5139157117       -3.7852460127  CLST      73              1.0000000000
       364        73  DCM       CL1            -3.7770631800       -9.3338587523       -4.1299832116  CLST      73              1.0000000000
       365        73  DCM       CL2            -1.6522512781      -10.6362306392       -5.6559334541  CLST      73              1.0000000000
       366        74  DCM       C               3.1074671537       -3.5928880855       -7.3901318076  CLST      74              1.0000000000
       367        74  DCM       H1              2.1940311327       -4.2026708413       -7.5549114203  CLST      74              1.0000000000
       368        74  DCM       H2              3.1825440231       -3.2717379623       -6.3297412525  CLST      74              1.0000000000
       369        74  DCM       CL1             4.5460495300       -4.5709541104       -7.7998261545  CLST      74              1.0000000000
       370        74  DCM       CL2             3.0414303175       -2.1469951818       -8.4387372017  CLST      74              1.0000000000
       371        75  DCM       C               1.3949179025       -6.6887099401        0.6958230397  CLST      75              1.0000000000
       372        75  DCM       H1              0.6598676820       -6.6930467088       -0.1374627410  CLST      75              1.0000000000
       373        75  DCM       H2              1.9128703592       -5.7055195347        0.7597104726  CLST      75              1.0000000000
       374        75  DCM       CL1             0.5398616008       -6.9967015760        2.2331283294  CLST      75              1.0000000000
       375        75  DCM       CL2             2.6085309282       -7.9680777610        0.4105597407  CLST      75              1.0000000000
       376        76  DCM       C               2.8169360147       -2.3785967098        3.3205702372  CLST      76              1.0000000000
       377        76  DCM       H1              3.8381101112       -2.6420791967        2.9770709090  CLST      76              1.0000000000
       378        76  DCM       H2              2.8506481786       -1.8365765763        4.2892955931  CLST      76              1.0000000000
       379        76  DCM       CL1             2.0444098100       -1.3357470419        2.0983959084  CLST      76              1.0000000000
       380        76  DCM       CL2             1.8560971444       -3.8702760870        3.5081500689  CLST      76              1.0000000000
       381        77  DCM       C              -0.2539820128        7.5966095059        3.4275747274  CLST      77              1.0000000000
       382        77  DCM       H1              0.1965911232        7.8679225262        2.4517802578  CLST      77              1.0000000000
       383        77  DCM       H2             -1.2680061426        7.1671712449        3.2970969241  CLST      77              1.0000000000
       384        77  DCM       CL1             0.7947226168        6.3933374763        4.2307495770  CLST      77              1.0000000000
       385        77  DCM       CL2            -0.3662693701        9.0729275813        4.4252494444  CLST      77              1.0000000000
       386        78  DCM       C              -4.6883429623        6.0051145119       -6.4814008750  CLST      78              1.0000000000
       387        78  DCM       H1             -5.5113118842        6.0094260187       -5.7354521478  CLST      78              1.0000000000
       388        78  DCM       H2             -5.0005203421        6.5044164017       -7.4229722446  CLST      78              1.0000000000
       389        78  DCM       CL1            -3.2845311249        6.8780382252       -5.8033148144  CLST      78              1.0000000000
       390        78  DCM       CL2            -4.2387712285        4.3138704439       -6.8438705006  CLST      78              1.0000000000
       391        79  DCM       C              -0.1238075604        2.6981844210       -7.0967505184  CLST      79              1.0000000000
       392        79  DCM       H1             -0.1227591154        2.5092128357       -8.1913225275  CLST      79              1.0000000000
       393        79  DCM       H2              0.8405885117        2.3939744051       -6.6407876878  CLST      79              1.0000000000
       394        79  DCM       CL1            -0.3823092025        4.4417609920       -6.8049618453  CLST      79              1.0000000000
       395        79  DCM       CL2            -1.4416661494        1.7546438595       -6.3463195102  CLST      79              1.0000000000
       396        80  DCM       C               1.8190926223       -3.2074641871        7.0789943602  CLST      80              1.0000000000
       397        80  DCM       H1              1.0342446860       -2.7001628133        6.4810162104  CLST      80              1.0000000000
       398        80  DCM       H2              2.8209303140       -3.0738914241        6.6191545568  CLST      80              1.0000000000
       399        80  DCM       CL1             1.8417800278       -2.5117842592        8.7251046967  CLST      80              1.0000000000
       400        80  DCM       CL2             1.4397510214       -4.9521314753        7.1601049984  CLST      80              1.0000000000
       401        81  DCM       C               3.5634787472       -5.7980272825      -11.2120344175  CLST      81              1.0000000000
       402        81  DCM       H1              3.9754953328       -5.1198089830      -11.9876637020  CLST      81              1.0000000000
       403        81  DCM       H2              4.2708568209       -5.9171247275      -10.3679969997  CLST      81              1.0000000000
       404        81  DCM       CL1             2.0272251184       -5.1139821701      -10.5985550034  CLST      81              1.0000000000
       405        81  DCM       CL2             3.2592964938       -7.4025246908      -11.9420392915  CLST      81              1.0000000000
       406        82  DCM       C               0.1346496134        8.1936192781       -7.2980103231  CLST      82              1.0000000000
       407        82  DCM       H1             -0.0055915672        8.5142851991       -8.3529734040  CLST      82              1.0000000000
       408        82  DCM       H2             -0.6551937178        7.4738599121       -6.9921853706  CLST      82              1.0000000000
       409        82  DCM       CL1             1.7271604292        7.4063940688       -7.1368638846  CLST      82              1.0000000000
       410        82  DCM       CL2             0.0583192785        9.6265409170       -6.2355569774  CLST      82              1.0000000000
       411        83  DCM       C              -1.2800109511       -0.1827545638        8.3110025270  CLST      83              1.0000000000
       412        83  DCM       H1             -1.6519010634       -0.1634812432        9.3570269096  CLST      83              1.0000000000
       413        83  DCM       H2             -0.1841482927       -0.0064368817        8.2713546301  CLST      83              1.0000000000
       414        83  DCM       CL1            -2.1081733179        1.0960186116        7.3745425736  CLST      83              1.0000000000
       415        83  DCM       CL2            -1.6343442085       -1.7849582344        7.6010564203  CLST      83              1.0000000000
       416        84  DCM       C               8.0883408584        0.0548209094       -0.8836809296  CLST      84              1.0000000000
       417        84  DCM       H1              7.9581437265        1.0706889394       -1.3125929198  CLST      84              1.0000000000
       418        84  DCM       H2              7.1398407345       -0.5184340460       -0.9294134494  CLST      84              1.0000000000
       419        84  DCM       CL1             9.3440194192       -0.8155738117       -1.8109764500  CLST      84              1.0000000000
       420        84  DCM       CL2             8.5929931367        0.1955439348        0.8241737313  CLST      84              1.0000000000
       421        85  DCM       C               6.9371196748       -2.8532677336       -3.3960362302  CLST      85              1.0000000000
       422        85  DCM       H1              7.9400548520       -2.6430838243       -3.8199139508  CLST      85              1.0000000000
       423        85  DCM       H2              6.5984468688       -2.0248862564       -2.7399961761  CLST      85              1.0000000000
       424        85  DCM       CL1             5.7729756670       -3.0389457507       -4.7377848105  CLST      85              1.0000000000
       425        85  DCM       CL2             7.0194020045       -4.3572036647       -2.4353614305  CLST      85              1.0000000000
       426        86  DCM       C               6.9055876157       -9.5931543060        8.4965049726  CLST      86              1.0000000000
       427        86  DCM       H1              6.7704619557      -10.6269794151        8.8792067871  CLST      86              1.0000000000
       428        86  DCM       H2              6.0057422543       -8.9726005342        8.6934167939  CLST      86              1.0000000000
       429        86  DCM       CL1             8.3137343951       -8.8526795006        9.3123356327  CLST      86              1.0000000000
       430        86  DCM       CL2             7.1902989149       -9.6595947650        6.7328498803  CLST      86              1.0000000000
       431        87  DCM       C             -10.7997556148       -0.7098341803        7.8644953430  CLST      87              1.0000000000
       432        87  DCM       H1            -10.7685583870       -1.7133065113        8.3401187982  CLST      87              1.0000000000
       433        87  DCM       H2            -11.7376740396       -0.1746485357        8.1224749221  CLST      87              1.0000000000
       434        87  DCM       CL1            -9.4062935057        0.2508858014        8.4404329023  CLST      87              1.0000000000
       435        87  DCM       CL2           -10.7113363003       -0.9039211482        6.0890352016  CLST      87              1.0000000000
       436        88  DCM       C               7.2610114190        8.6706706489        1.5836922112  CLST      88              1.0000000000
       437        88  DCM       H1              6.4331584602        9.4094257952        1.5383247828  CLST      88              1.0000000000
       438        88  DCM       H2              7.9523589936        8.8938681330        2.4223943652  CLST      88              1.0000000000
       439        88  DCM       CL1             6.5739162862        7.0416883847        1.8316504116  CLST      88              1.0000000000
       440        88  DCM       CL2             8.1743038217        8.7202889827        0.0479911866  CLST      88              1.0000000000
       441        89  DCM       C              -3.0685381271       10.0950319955        1.7781888278  CLST      89              1.0000000000
       442        89  DCM       H1             -3.5981041233       10.9990782214        1.4097937242  CLST      89              1.0000000000
       443        89  DCM       H2             -2.9168224220       10.1394885560        2.8777070443  CLST      89              1.0000000000
       444        89  DCM       CL1            -4.0395049045        8.6493000369        1.3791981937  CLST      89              1.0000000000
       445        89  DCM       CL2            -1.4763583631        9.9893850483        0.9769671322  CLST      89              1.0000000000
       446        90  DCM       C             -11.1478982023        6.7724748928      -10.0051254021  CLST      90              1.0000000000
       447        90  DCM       H1            -12.0994256511        7.2108078266      -10.3755295984  CLST      90              1.0000000000
       448        90  DCM       H2            -11.0401587854        5.7155889554      -10.3294124956  CLST      90              1.0000000000
       449        90  DCM       CL1            -9.7803272098        7.7205900814      -10.6570227520  CLST      90              1.0000000000
       450        90  DCM       CL2           -11.1364287531        6.8377744317       -8.2189257117  CLST      90              1.0000000000
       451        91  DCM       C              -3.1487828136       -3.9165300669        4.7978325722  CLST      91              1.0000000000
       452        91  DCM       H1             -3.4805423985       -3.4540296257        5.7513857523  CLST      91              1.0000000000
       453        91  DCM       H2             -3.6716162021       -4.8805977951        4.6206092768  CLST      91              1.0000000000
       454        91  DCM       CL1            -3.5136623503       -2.8017393794        3.4490012471  CLST      91              1.0000000000
       455        91  DCM       CL2            -1.3895872104       -4.2150372411        4.8806290434  CLST      91              1.0000000000
       456        92  DCM       C              13.0734460083       -0.9078250851       11.8712182201  CLST      92              1.0000000000
       457        92  DCM       H1             13.3568351749       -1.5313899166       12.7454366929  CLST      92              1.0000000000
       458        92  DCM       H2             11.9802209181       -0.9564671779       11.6816752967  CLST      92              1.0000000000
       459        92  DCM       CL1            13.5319308665        0.7897173653       12.1955991034  CLST      92              1.0000000000
       460        92  DCM       CL2            13.9404598966       -1.5052572641       10.4260973976  CLST      92              1.0000000000
       461        93  DCM       C              -2.0876171155        4.2538063450       -3.5804978701  CLST      93              1.0000000000
       462        93  DCM       H1             -1.4332825713        5.0608400975       -3.9713278510  CLST      93              1.0000000000
       463        93  DCM       H2             -2.5708615621        3.6986584232       -4.4112828280  CLST      93              1.0000000000
       464        93  DCM       CL1            -1.1008234154        3.1159872855       -2.6173350024  CLST      93              1.0000000000
       465        93  DCM       CL2            -3.3593118835        4.9789385214       -2.5549237638  CLST      93              1.0000000000
       466        94  DCM       C               7.8241165533        4.3180739035        4.2763558980  CLST      94              1.0000000000
       467        94  DCM       H1              8.2627775946        4.3752440268        5.2948114443  CLST      94              1.0000000000
       468        94  DCM       H2              8.2234461877        5.1227435675        3.6250978595  CLST      94              1.0000000000
       469        94  DCM       CL1             8.2267999407        2.7327007162        3.5576527448  CLST      94              1.0000000000
       470        94  DCM       CL2             6.0503874286        4.5010490150        4.3973027910  CLST      94              1.0000000000
       471        95  DCM       C               4.2821605430        1.4879736154        3.0875353574  CLST      95              1.0000000000
       472        95  DCM       H1              3.3989858623        1.3088677568        2.4388949054  CLST      95              1.0000000000
       473        95  DCM       H2              4.7696231842        2.4524973512        2.8353760355  CLST      95              1.0000000000
       474        95  DCM       CL1             3.7465591132        1.5315220399        4.7909973613  CLST      95              1.0000000000
       475        95  DCM       CL2             5.4665497425        0.1687818883        2.8623515767  CLST      95              1.0000000000
