* INITIAL
*  DATE:     6/28/26      1:58: 3      CREATED BY USER: boittier
*
       475  EXT
         1         1  DCM       C               4.4121162899        9.2847770761       -1.8791369137  CLST      1               1.0000000000
         2         1  DCM       H1              4.5495810685        8.2082217098       -2.1080511336  CLST      1               1.0000000000
         3         1  DCM       H2              4.1452827958        9.4357043632       -0.8117665863  CLST      1               1.0000000000
         4         1  DCM       CL1             5.9400218758       10.1434017708       -2.2245958275  CLST      1               1.0000000000
         5         1  DCM       CL2             3.1011767377        9.9319259482       -2.9060344120  CLST      1               1.0000000000
         6         2  DCM       C              -8.2580150285        1.5552078120        0.5913357760  CLST      2               1.0000000000
         7         2  DCM       H1             -7.6538678081        2.2416986692        1.2187973007  CLST      2               1.0000000000
         8         2  DCM       H2             -9.2085330086        1.2804047659        1.0951163407  CLST      2               1.0000000000
         9         2  DCM       CL1            -8.6292720728        2.3634461316       -0.9584989357  CLST      2               1.0000000000
        10         2  DCM       CL2            -7.3114504165        0.0715494668        0.2914017532  CLST      2               1.0000000000
        11         3  DCM       C              12.3703549116       -0.6742242139        2.6474010209  CLST      3               1.0000000000
        12         3  DCM       H1             11.6954446328        0.2061086719        2.6771362649  CLST      3               1.0000000000
        13         3  DCM       H2             11.8367070666       -1.5715627047        2.2727081250  CLST      3               1.0000000000
        14         3  DCM       CL1            13.7444227146       -0.3234985556        1.5603925374  CLST      3               1.0000000000
        15         3  DCM       CL2            12.9609816484       -0.9986878613        4.3019438171  CLST      3               1.0000000000
        16         4  DCM       C              -9.5898669970       -9.2292799699       -0.9006100633  CLST      4               1.0000000000
        17         4  DCM       H1             -9.4136680706      -10.3204957624       -1.0128276790  CLST      4               1.0000000000
        18         4  DCM       H2             -8.7436508643       -8.7387363466       -0.3750785173  CLST      4               1.0000000000
        19         4  DCM       CL1            -9.7694297483       -8.4998589003       -2.5226073718  CLST      4               1.0000000000
        20         4  DCM       CL2           -11.0854943558       -8.9773967793        0.0438267633  CLST      4               1.0000000000
        21         5  DCM       C              -4.5183919475        7.6629767463       -7.3389762437  CLST      5               1.0000000000
        22         5  DCM       H1             -4.2444558560        8.3618101142       -8.1570833188  CLST      5               1.0000000000
        23         5  DCM       H2             -3.6337710461        7.0911381454       -6.9894501241  CLST      5               1.0000000000
        24         5  DCM       CL1            -5.1785512729        8.6018348002       -5.9685202166  CLST      5               1.0000000000
        25         5  DCM       CL2            -5.7514954415        6.5177316091       -7.9423338932  CLST      5               1.0000000000
        26         6  DCM       C              -9.6456588641       -4.8559714837        4.9935866140  CLST      6               1.0000000000
        27         6  DCM       H1            -10.3822827637       -5.6140250469        5.3304659718  CLST      6               1.0000000000
        28         6  DCM       H2            -10.1242563522       -4.0955374258        4.3409264676  CLST      6               1.0000000000
        29         6  DCM       CL1            -8.9496033557       -4.0338260434        6.4205065633  CLST      6               1.0000000000
        30         6  DCM       CL2            -8.3485122318       -5.6712266619        4.0719012981  CLST      6               1.0000000000
        31         7  DCM       C               6.4847553841        3.5314044129        6.7950930764  CLST      7               1.0000000000
        32         7  DCM       H1              5.8297873624        4.4202588747        6.6758876505  CLST      7               1.0000000000
        33         7  DCM       H2              6.4145460733        2.8645297203        5.9103868398  CLST      7               1.0000000000
        34         7  DCM       CL1             8.1791181837        4.0705354451        6.9715490704  CLST      7               1.0000000000
        35         7  DCM       CL2             5.9804523607        2.6186896464        8.2472452500  CLST      7               1.0000000000
        36         8  DCM       C              -5.0693012382        7.2964750643        7.8427662837  CLST      8               1.0000000000
        37         8  DCM       H1             -4.9204936095        6.2310564256        8.1196162625  CLST      8               1.0000000000
        38         8  DCM       H2             -4.9738305002        7.9562796722        8.7307388581  CLST      8               1.0000000000
        39         8  DCM       CL1            -3.8348820487        7.7613171200        6.6367965906  CLST      8               1.0000000000
        40         8  DCM       CL2            -6.7027494887        7.4941587015        7.1426891136  CLST      8               1.0000000000
        41         9  DCM       C             -12.6712485278       -7.9904055866        3.4277192613  CLST      9               1.0000000000
        42         9  DCM       H1            -12.9048914319       -8.2698386532        2.3797100518  CLST      9               1.0000000000
        43         9  DCM       H2            -13.3192306386       -8.5451804419        4.1391397912  CLST      9               1.0000000000
        44         9  DCM       CL1           -10.9614725629       -8.3862762036        3.7654887522  CLST      9               1.0000000000
        45         9  DCM       CL2           -12.9407258595       -6.2355209854        3.6366765479  CLST      9               1.0000000000
        46        10  DCM       C             -14.2454416063      -10.9284121021        1.0554252795  CLST      10              1.0000000000
        47        10  DCM       H1            -14.7334426961      -11.8450959356        0.6617468054  CLST      10              1.0000000000
        48        10  DCM       H2            -13.7830233274      -10.3393967589        0.2362315181  CLST      10              1.0000000000
        49        10  DCM       CL1           -15.4739583050       -9.9196945656        1.8733573067  CLST      10              1.0000000000
        50        10  DCM       CL2           -12.9736217522      -11.3996783165        2.2199083263  CLST      10              1.0000000000
        51        11  DCM       C              -7.7424915521       -1.2595038014       11.0701677852  CLST      11              1.0000000000
        52        11  DCM       H1             -7.9454299725       -1.6676585190       12.0834054518  CLST      11              1.0000000000
        53        11  DCM       H2             -8.3960446573       -1.7342565019       10.3078611811  CLST      11              1.0000000000
        54        11  DCM       CL1            -8.0467972095        0.5026838997       11.0831787714  CLST      11              1.0000000000
        55        11  DCM       CL2            -6.0341295647       -1.5780828275       10.6512169775  CLST      11              1.0000000000
        56        12  DCM       C               9.0278138108       -3.5590893449        9.3749901099  CLST      12              1.0000000000
        57        12  DCM       H1             10.0119867068       -3.7449608431        9.8523264292  CLST      12              1.0000000000
        58        12  DCM       H2              8.9533956204       -4.0805473993        8.3971043996  CLST      12              1.0000000000
        59        12  DCM       CL1             7.7345960675       -4.1632094829       10.4511314788  CLST      12              1.0000000000
        60        12  DCM       CL2             8.8290865219       -1.8024747523        9.1162703935  CLST      12              1.0000000000
        61        13  DCM       C              -7.1008168512       -2.2447267352        3.2201139065  CLST      13              1.0000000000
        62        13  DCM       H1             -6.3405993526       -1.4365645831        3.2203183601  CLST      13              1.0000000000
        63        13  DCM       H2             -6.9766420887       -2.9079482949        4.1032740000  CLST      13              1.0000000000
        64        13  DCM       CL1            -8.7330352033       -1.5139896808        3.2724501790  CLST      13              1.0000000000
        65        13  DCM       CL2            -6.9178658172       -3.2141218207        1.7287114627  CLST      13              1.0000000000
        66        14  DCM       C             -10.1309442443        3.9366358729       -7.2257207046  CLST      14              1.0000000000
        67        14  DCM       H1            -11.1546856749        4.2205192365       -6.9028832583  CLST      14              1.0000000000
        68        14  DCM       H2             -9.5754420636        3.4448601660       -6.4004007285  CLST      14              1.0000000000
        69        14  DCM       CL1           -10.2456582603        2.8064906436       -8.6055993980  CLST      14              1.0000000000
        70        14  DCM       CL2            -9.2455728565        5.4063379264       -7.7233066027  CLST      14              1.0000000000
        71        15  DCM       C              -8.2942224350        2.3367089525        4.3471748943  CLST      15              1.0000000000
        72        15  DCM       H1             -8.4027626732        2.4362701651        5.4475179234  CLST      15              1.0000000000
        73        15  DCM       H2             -9.1432869754        1.7748945269        3.9110822961  CLST      15              1.0000000000
        74        15  DCM       CL1            -8.2336245566        3.9698258405        3.6173839550  CLST      15              1.0000000000
        75        15  DCM       CL2            -6.7781261676        1.4586650891        3.9926138390  CLST      15              1.0000000000
        76        16  DCM       C               4.3193275124       -4.8406381250        1.8836770155  CLST      16              1.0000000000
        77        16  DCM       H1              4.9138418747       -5.7481772060        2.1217589053  CLST      16              1.0000000000
        78        16  DCM       H2              4.5817195989       -4.0067186219        2.5676539384  CLST      16              1.0000000000
        79        16  DCM       CL1             2.5805392870       -5.2106332425        2.0470375811  CLST      16              1.0000000000
        80        16  DCM       CL2             4.6610565660       -4.3510910069        0.2024283107  CLST      16              1.0000000000
        81        17  DCM       C               6.0403275857        1.7829502024       -1.2685294316  CLST      17              1.0000000000
        82        17  DCM       H1              6.8631173177        1.5131719422       -1.9625131166  CLST      17              1.0000000000
        83        17  DCM       H2              5.0827490529        1.8958836267       -1.8173422096  CLST      17              1.0000000000
        84        17  DCM       CL1             5.8663407021        0.4970982594       -0.0450670890  CLST      17              1.0000000000
        85        17  DCM       CL2             6.4371329124        3.3204494887       -0.4564586399  CLST      17              1.0000000000
        86        18  DCM       C              -6.6277843112        1.7268368641       -8.0769240556  CLST      18              1.0000000000
        87        18  DCM       H1             -7.5957923832        1.2015620223       -8.2187472485  CLST      18              1.0000000000
        88        18  DCM       H2             -5.7868902910        1.0049186684       -8.0109427097  CLST      18              1.0000000000
        89        18  DCM       CL1            -6.3518690753        2.8202173175       -9.4626644070  CLST      18              1.0000000000
        90        18  DCM       CL2            -6.6974926553        2.6775892418       -6.5669582149  CLST      18              1.0000000000
        91        19  DCM       C               4.0528309932        1.5030098418      -10.6283256040  CLST      19              1.0000000000
        92        19  DCM       H1              5.0307195909        1.6603535703      -11.1294790856  CLST      19              1.0000000000
        93        19  DCM       H2              3.4364325609        0.7573148769      -11.1721694537  CLST      19              1.0000000000
        94        19  DCM       CL1             4.3448956458        0.9173005056       -8.9641663765  CLST      19              1.0000000000
        95        19  DCM       CL2             3.1794238754        3.0600817340      -10.5766646325  CLST      19              1.0000000000
        96        20  DCM       C              -1.1348534760        6.5168316513        4.6626427613  CLST      20              1.0000000000
        97        20  DCM       H1             -1.8546869937        5.9091086563        5.2493100895  CLST      20              1.0000000000
        98        20  DCM       H2             -0.6408133984        7.2789374135        5.3015289888  CLST      20              1.0000000000
        99        20  DCM       CL1             0.1135843460        5.4380550688        3.9738751449  CLST      20              1.0000000000
       100        20  DCM       CL2            -2.0223143408        7.3461081542        3.3516316596  CLST      20              1.0000000000
       101        21  DCM       C               4.7373780498       -3.6079168164       -5.4407094018  CLST      21              1.0000000000
       102        21  DCM       H1              4.7426928711       -2.5402509745       -5.1310815501  CLST      21              1.0000000000
       103        21  DCM       H2              4.2905851217       -3.7281894154       -6.4471098264  CLST      21              1.0000000000
       104        21  DCM       CL1             6.4187797091       -4.2120272314       -5.4723746010  CLST      21              1.0000000000
       105        21  DCM       CL2             3.7769738339       -4.5566589709       -4.2710224661  CLST      21              1.0000000000
       106        22  DCM       C              -1.2365914833        2.9798516158       -3.9314928025  CLST      22              1.0000000000
       107        22  DCM       H1             -1.1690583485        3.3644945980       -4.9702402809  CLST      22              1.0000000000
       108        22  DCM       H2             -0.8981880933        3.7408272487       -3.1984994082  CLST      22              1.0000000000
       109        22  DCM       CL1            -2.9346986167        2.5642556049       -3.5809965267  CLST      22              1.0000000000
       110        22  DCM       CL2            -0.2164932724        1.5202678819       -3.7823917239  CLST      22              1.0000000000
       111        23  DCM       C              10.8783757103       -0.4066640694       -0.9132314069  CLST      23              1.0000000000
       112        23  DCM       H1             10.9065913335       -1.3181773740       -0.2807050634  CLST      23              1.0000000000
       113        23  DCM       H2             11.6868073434        0.3017528277       -0.6335439196  CLST      23              1.0000000000
       114        23  DCM       CL1            11.0796402157       -0.8754824903       -2.6252459038  CLST      23              1.0000000000
       115        23  DCM       CL2             9.3019398432        0.3994279579       -0.6951128883  CLST      23              1.0000000000
       116        24  DCM       C              11.1365316544       -4.9376808005        1.5149033546  CLST      24              1.0000000000
       117        24  DCM       H1             10.0908409518       -4.9761504317        1.1432213147  CLST      24              1.0000000000
       118        24  DCM       H2             11.5842339397       -5.9530854900        1.5421346156  CLST      24              1.0000000000
       119        24  DCM       CL1            12.1114119799       -3.9035154027        0.4296981999  CLST      24              1.0000000000
       120        24  DCM       CL2            11.1405481701       -4.2545698904        3.1664321263  CLST      24              1.0000000000
       121        25  DCM       C               0.2529619917       -3.4873795722       -4.3935757572  CLST      25              1.0000000000
       122        25  DCM       H1             -0.8504668954       -3.4546190588       -4.5050083243  CLST      25              1.0000000000
       123        25  DCM       H2              0.5748252031       -4.4262909476       -3.8981151953  CLST      25              1.0000000000
       124        25  DCM       CL1             0.9956741458       -3.4037127057       -6.0163581416  CLST      25              1.0000000000
       125        25  DCM       CL2             0.7823670574       -2.0971911897       -3.4029313975  CLST      25              1.0000000000
       126        26  DCM       C              -0.6604959738        0.3433467378        5.2449911985  CLST      26              1.0000000000
       127        26  DCM       H1             -1.1883256640        0.9083842645        6.0404931149  CLST      26              1.0000000000
       128        26  DCM       H2             -0.0174981313       -0.4488052745        5.6811677703  CLST      26              1.0000000000
       129        26  DCM       CL1             0.3547235472        1.4798680867        4.3128498956  CLST      26              1.0000000000
       130        26  DCM       CL2            -1.8717370310       -0.4102750834        4.1680209953  CLST      26              1.0000000000
       131        27  DCM       C               3.0596498347        8.6795634228        3.2213197908  CLST      27              1.0000000000
       132        27  DCM       H1              3.4035846480        8.7611671353        2.1689139060  CLST      27              1.0000000000
       133        27  DCM       H2              3.5412503738        9.4501324886        3.8595412350  CLST      27              1.0000000000
       134        27  DCM       CL1             1.2891428825        8.9075755289        3.2733740533  CLST      27              1.0000000000
       135        27  DCM       CL2             3.4758499624        7.0588630265        3.8480954539  CLST      27              1.0000000000
       136        28  DCM       C              -7.7823732670        7.6862542897        0.4815579609  CLST      28              1.0000000000
       137        28  DCM       H1             -8.2280204349        7.3433298130        1.4390201607  CLST      28              1.0000000000
       138        28  DCM       H2             -6.7319422097        7.3414149198        0.3860443407  CLST      28              1.0000000000
       139        28  DCM       CL1            -8.7382257564        7.0258689633       -0.8766865734  CLST      28              1.0000000000
       140        28  DCM       CL2            -7.8065494677        9.4725250399        0.4313241540  CLST      28              1.0000000000
       141        29  DCM       C              -2.6685693863       -9.9260882251        0.4121186735  CLST      29              1.0000000000
       142        29  DCM       H1             -3.1154709421       -9.6854089682       -0.5744359057  CLST      29              1.0000000000
       143        29  DCM       H2             -3.1384095177      -10.8294823218        0.8545640618  CLST      29              1.0000000000
       144        29  DCM       CL1            -0.9188617103      -10.2256623774        0.2004485328  CLST      29              1.0000000000
       145        29  DCM       CL2            -2.9230866276       -8.5369152954        1.5082448100  CLST      29              1.0000000000
       146        30  DCM       C             -12.3267271011       -1.5475629500       -4.6346855061  CLST      30              1.0000000000
       147        30  DCM       H1            -12.2896563542       -1.0163391252       -3.6615731182  CLST      30              1.0000000000
       148        30  DCM       H2            -12.2448420016       -0.8347178591       -5.4820249317  CLST      30              1.0000000000
       149        30  DCM       CL1           -10.9702689926       -2.7074901586       -4.7183775531  CLST      30              1.0000000000
       150        30  DCM       CL2           -13.8837996456       -2.4193349522       -4.7636231580  CLST      30              1.0000000000
       151        31  DCM       C               4.3347594411       -2.6722736322        9.6276403778  CLST      31              1.0000000000
       152        31  DCM       H1              3.2557603556       -2.4380301732        9.7469705420  CLST      31              1.0000000000
       153        31  DCM       H2              4.8286960949       -2.8002960426       10.6146367166  CLST      31              1.0000000000
       154        31  DCM       CL1             4.4979488576       -4.1889014730        8.6949135297  CLST      31              1.0000000000
       155        31  DCM       CL2             5.1276105513       -1.3287472323        8.7542975827  CLST      31              1.0000000000
       156        32  DCM       C               0.3610820122        6.6694997807        0.3754098387  CLST      32              1.0000000000
       157        32  DCM       H1             -0.1007510303        7.2568545552        1.1950746760  CLST      32              1.0000000000
       158        32  DCM       H2              0.5359326758        5.6190939332        0.6866805906  CLST      32              1.0000000000
       159        32  DCM       CL1            -0.7348710516        6.6794067524       -1.0327298767  CLST      32              1.0000000000
       160        32  DCM       CL2             1.9196668776        7.4128603181       -0.0719602281  CLST      32              1.0000000000
       161        33  DCM       C              12.4161333996        3.2279631008        1.6417666482  CLST      33              1.0000000000
       162        33  DCM       H1             12.9999285467        2.6396965764        0.9008172389  CLST      33              1.0000000000
       163        33  DCM       H2             12.4588454033        4.3119429166        1.4121444537  CLST      33              1.0000000000
       164        33  DCM       CL1            10.7111342600        2.6926721185        1.6007298238  CLST      33              1.0000000000
       165        33  DCM       CL2            13.0974766264        2.9551159974        3.2717215419  CLST      33              1.0000000000
       166        34  DCM       C              -2.4891208119       -9.2383520819       -4.4491391954  CLST      34              1.0000000000
       167        34  DCM       H1             -1.7807296264       -8.6143052896       -3.8642987412  CLST      34              1.0000000000
       168        34  DCM       H2             -3.2707628505       -8.6124275196       -4.9269178198  CLST      34              1.0000000000
       169        34  DCM       CL1            -1.5842341189      -10.1125079109       -5.7199338828  CLST      34              1.0000000000
       170        34  DCM       CL2            -3.2733906750      -10.4102965774       -3.3515750764  CLST      34              1.0000000000
       171        35  DCM       C               0.0879088858       -9.4053024377        3.7125257007  CLST      35              1.0000000000
       172        35  DCM       H1              0.1319983767       -9.1145930616        4.7828849530  CLST      35              1.0000000000
       173        35  DCM       H2             -0.9206730928       -9.7821139986        3.4410038342  CLST      35              1.0000000000
       174        35  DCM       CL1             0.4646693123       -7.9775523911        2.7047155748  CLST      35              1.0000000000
       175        35  DCM       CL2             1.2863165829      -10.6965886832        3.4114070918  CLST      35              1.0000000000
       176        36  DCM       C               4.2957703931       -2.6974953350       -9.1855338360  CLST      36              1.0000000000
       177        36  DCM       H1              4.1859609610       -2.0515238330       -8.2884086149  CLST      36              1.0000000000
       178        36  DCM       H2              4.1689250418       -2.1081019152      -10.1172180436  CLST      36              1.0000000000
       179        36  DCM       CL1             5.9226629900       -3.4356514064       -9.1785744848  CLST      36              1.0000000000
       180        36  DCM       CL2             3.0534968328       -3.9814726226       -9.1359931794  CLST      36              1.0000000000
       181        37  DCM       C              -6.0796073376        9.1202928806        3.8247730826  CLST      37              1.0000000000
       182        37  DCM       H1             -7.1380059718        9.3758260406        3.6066241080  CLST      37              1.0000000000
       183        37  DCM       H2             -5.8427220209        9.2770223992        4.8979305650  CLST      37              1.0000000000
       184        37  DCM       CL1            -5.7982557107        7.4044277666        3.4095197225  CLST      37              1.0000000000
       185        37  DCM       CL2            -5.0160775141       10.1672953166        2.8426229114  CLST      37              1.0000000000
       186        38  DCM       C              -3.7247015294        1.0469213760        8.9967665053  CLST      38              1.0000000000
       187        38  DCM       H1             -3.8875707566       -0.0150540197        9.2781446322  CLST      38              1.0000000000
       188        38  DCM       H2             -2.7386877000        1.4083361746        9.3559344635  CLST      38              1.0000000000
       189        38  DCM       CL1            -3.7910080670        1.1955732972        7.2195491938  CLST      38              1.0000000000
       190        38  DCM       CL2            -5.0074498367        2.0503888217        9.7263594702  CLST      38              1.0000000000
       191        39  DCM       C              -4.9218427578        1.0543303642       13.3721759670  CLST      39              1.0000000000
       192        39  DCM       H1             -5.5548856206        1.5106848289       12.5825522516  CLST      39              1.0000000000
       193        39  DCM       H2             -4.6154650974        1.8110817855       14.1249468980  CLST      39              1.0000000000
       194        39  DCM       CL1            -5.8546019162       -0.2341818054       14.1881228052  CLST      39              1.0000000000
       195        39  DCM       CL2            -3.4574276102        0.3585801338       12.6172731181  CLST      39              1.0000000000
       196        40  DCM       C             -11.8715681474       -5.5524798137       -2.6017549051  CLST      40              1.0000000000
       197        40  DCM       H1            -10.8344721280       -5.2091835532       -2.8057125768  CLST      40              1.0000000000
       198        40  DCM       H2            -11.8737306192       -6.4554326199       -1.9566348242  CLST      40              1.0000000000
       199        40  DCM       CL1           -12.7683685418       -4.2455888372       -1.7751335291  CLST      40              1.0000000000
       200        40  DCM       CL2           -12.6652698243       -5.9494139314       -4.1526159492  CLST      40              1.0000000000
       201        41  DCM       C              -0.1114600363       -2.0455304863       -9.3337466364  CLST      41              1.0000000000
       202        41  DCM       H1              0.3184604209       -2.8865377616       -8.7507047259  CLST      41              1.0000000000
       203        41  DCM       H2             -0.9427514202       -1.5649781504       -8.7798763980  CLST      41              1.0000000000
       204        41  DCM       CL1             1.1651849227       -0.8332560295       -9.6397594315  CLST      41              1.0000000000
       205        41  DCM       CL2            -0.7313470932       -2.6790741650      -10.8846001726  CLST      41              1.0000000000
       206        42  DCM       C               7.4714861887        3.3988895170        3.0598298984  CLST      42              1.0000000000
       207        42  DCM       H1              8.2147510103        3.5150342895        3.8771342230  CLST      42              1.0000000000
       208        42  DCM       H2              7.9423870060        3.5553313276        2.0679073793  CLST      42              1.0000000000
       209        42  DCM       CL1             6.7846754184        1.7510728223        3.1238141987  CLST      42              1.0000000000
       210        42  DCM       CL2             6.1724062699        4.6040683061        3.2795029579  CLST      42              1.0000000000
       211        43  DCM       C              -5.2190847598        0.0990077489       -4.4094036655  CLST      43              1.0000000000
       212        43  DCM       H1             -4.4635060126       -0.5163317856       -3.8766353675  CLST      43              1.0000000000
       213        43  DCM       H2             -4.7309877367        0.8115392654       -5.1058867852  CLST      43              1.0000000000
       214        43  DCM       CL1            -6.3034827102       -0.9677646474       -5.3456863483  CLST      43              1.0000000000
       215        43  DCM       CL2            -6.1663890861        1.0218552642       -3.2097643574  CLST      43              1.0000000000
       216        44  DCM       C              -7.1206772405       -0.1110918164        7.2685726287  CLST      44              1.0000000000
       217        44  DCM       H1             -6.7379495178        0.8237833670        6.8115181370  CLST      44              1.0000000000
       218        44  DCM       H2             -7.0478190342       -0.0647907054        8.3733778716  CLST      44              1.0000000000
       219        44  DCM       CL1            -8.8322604780       -0.3359042042        6.8031997847  CLST      44              1.0000000000
       220        44  DCM       CL2            -6.1487478583       -1.4886878752        6.6766351614  CLST      44              1.0000000000
       221        45  DCM       C              -5.6706787615        4.6760377423       -1.0504400164  CLST      45              1.0000000000
       222        45  DCM       H1             -5.9751073083        3.7270564154       -1.5401922091  CLST      45              1.0000000000
       223        45  DCM       H2             -6.2940404146        5.5223764510       -1.4065259987  CLST      45              1.0000000000
       224        45  DCM       CL1            -5.8532121569        4.5174902723        0.7195907082  CLST      45              1.0000000000
       225        45  DCM       CL2            -3.9652581837        5.0140524372       -1.4533943723  CLST      45              1.0000000000
       226        46  DCM       C               2.8936907720       -6.9563368206       -6.9970786938  CLST      46              1.0000000000
       227        46  DCM       H1              2.3877834823       -7.2894062917       -7.9286649703  CLST      46              1.0000000000
       228        46  DCM       H2              2.4978146154       -5.9762472836       -6.6583862055  CLST      46              1.0000000000
       229        46  DCM       CL1             2.6140658939       -8.1712735247       -5.7167094020  CLST      46              1.0000000000
       230        46  DCM       CL2             4.6438776127       -6.8012604053       -7.3192675673  CLST      46              1.0000000000
       231        47  DCM       C              -9.4914461453        1.1405149670       -4.4008713033  CLST      47              1.0000000000
       232        47  DCM       H1             -9.2777497983        0.3635186698       -3.6382655475  CLST      47              1.0000000000
       233        47  DCM       H2             -8.7019122564        1.9203030417       -4.4011197537  CLST      47              1.0000000000
       234        47  DCM       CL1            -9.5494930925        0.3753621086       -6.0135638838  CLST      47              1.0000000000
       235        47  DCM       CL2           -11.0644880794        1.9045365441       -4.0344944538  CLST      47              1.0000000000
       236        48  DCM       C              -3.3276902897        3.9731728949       -7.3449400870  CLST      48              1.0000000000
       237        48  DCM       H1             -3.9837367374        4.1051706875       -8.2311408963  CLST      48              1.0000000000
       238        48  DCM       H2             -3.7865329314        4.4168133461       -6.4377864716  CLST      48              1.0000000000
       239        48  DCM       CL1            -1.7622279449        4.7758300760       -7.6588121092  CLST      48              1.0000000000
       240        48  DCM       CL2            -3.0759917448        2.2281964774       -7.0687597988  CLST      48              1.0000000000
       241        49  DCM       C               0.2513770661       10.6174652188       -0.5715781053  CLST      49              1.0000000000
       242        49  DCM       H1              0.4354454030        9.7746713309       -1.2708632609  CLST      49              1.0000000000
       243        49  DCM       H2             -0.0880172010       11.5232203449       -1.1173008427  CLST      49              1.0000000000
       244        49  DCM       CL1            -1.0097441293       10.1358509860        0.5985140846  CLST      49              1.0000000000
       245        49  DCM       CL2             1.7665725723       10.9989429086        0.2969706266  CLST      49              1.0000000000
       246        50  DCM       C              -9.4814318499       -2.2830782982       -1.2605542598  CLST      50              1.0000000000
       247        50  DCM       H1             -9.0307039649       -2.3989657086       -0.2522511808  CLST      50              1.0000000000
       248        50  DCM       H2            -10.0754607891       -3.1770191570       -1.5374641786  CLST      50              1.0000000000
       249        50  DCM       CL1           -10.5531852523       -0.8540846327       -1.2561691116  CLST      50              1.0000000000
       250        50  DCM       CL2            -8.1736888522       -2.0690122170       -2.4578669402  CLST      50              1.0000000000
       251        51  DCM       C              -7.7047961772        3.9514858391        8.0984008992  CLST      51              1.0000000000
       252        51  DCM       H1             -7.9466727608        4.6903217479        7.3064912106  CLST      51              1.0000000000
       253        51  DCM       H2             -6.8308902373        3.3294009180        7.8099342994  CLST      51              1.0000000000
       254        51  DCM       CL1            -7.3248576692        4.8205872931        9.6131516112  CLST      51              1.0000000000
       255        51  DCM       CL2            -9.1159733676        2.8852043827        8.3506284363  CLST      51              1.0000000000
       256        52  DCM       C               8.5216323642       -1.4825195372       -7.1915595679  CLST      52              1.0000000000
       257        52  DCM       H1              8.4132835759       -2.3714552368       -7.8498755845  CLST      52              1.0000000000
       258        52  DCM       H2              9.1382383688       -0.6996449099       -7.6767670144  CLST      52              1.0000000000
       259        52  DCM       CL1             9.3168934501       -1.9812246214       -5.6703128996  CLST      52              1.0000000000
       260        52  DCM       CL2             6.9008101495       -0.8130260062       -6.8474316283  CLST      52              1.0000000000
       261        53  DCM       C              -2.1826530364        0.8000676733      -10.2238489228  CLST      53              1.0000000000
       262        53  DCM       H1             -1.4791351053        0.9316897665       -9.3750464642  CLST      53              1.0000000000
       263        53  DCM       H2             -1.6783373349        0.3194089006      -11.0885407137  CLST      53              1.0000000000
       264        53  DCM       CL1            -3.5427901193       -0.2327937229       -9.6926852896  CLST      53              1.0000000000
       265        53  DCM       CL2            -2.7934045665        2.4040391024      -10.7224531396  CLST      53              1.0000000000
       266        54  DCM       C               6.7960372224        3.2992332850       -7.7274123287  CLST      54              1.0000000000
       267        54  DCM       H1              6.8154043466        2.1951815735       -7.6507140541  CLST      54              1.0000000000
       268        54  DCM       H2              7.6816952427        3.7508631202       -7.2290403779  CLST      54              1.0000000000
       269        54  DCM       CL1             6.7956868223        3.7710664107       -9.4539334101  CLST      54              1.0000000000
       270        54  DCM       CL2             5.3130035805        3.9096170624       -6.9419528769  CLST      54              1.0000000000
       271        55  DCM       C               8.3100242387       -7.5305750289        8.8510199622  CLST      55              1.0000000000
       272        55  DCM       H1              8.1611624632       -7.2402846197        9.9128867687  CLST      55              1.0000000000
       273        55  DCM       H2              8.2871351179       -8.6345929292        8.7329634254  CLST      55              1.0000000000
       274        55  DCM       CL1             7.0047337871       -6.8112661684        7.8647636792  CLST      55              1.0000000000
       275        55  DCM       CL2             9.8957841758       -6.9192867698        8.2954663496  CLST      55              1.0000000000
       276        56  DCM       C               0.4925726345       -6.8471925131       -1.0199619395  CLST      56              1.0000000000
       277        56  DCM       H1              0.6960097565       -5.9527664709       -0.3938789386  CLST      56              1.0000000000
       278        56  DCM       H2              0.7338599686       -7.7808434164       -0.4683890707  CLST      56              1.0000000000
       279        56  DCM       CL1            -1.2361735419       -6.8632134894       -1.4761377918  CLST      56              1.0000000000
       280        56  DCM       CL2             1.4985182364       -6.7684489614       -2.4938409837  CLST      56              1.0000000000
       281        57  DCM       C               2.2477438269       -1.4842872882        0.9353310501  CLST      57              1.0000000000
       282        57  DCM       H1              2.5073250163       -1.0204180002       -0.0387885311  CLST      57              1.0000000000
       283        57  DCM       H2              2.1197216793       -2.5812549451        0.8285861686  CLST      57              1.0000000000
       284        57  DCM       CL1             3.5576207009       -1.1523058464        2.1076415819  CLST      57              1.0000000000
       285        57  DCM       CL2             0.7155414436       -0.7738067532        1.5192410496  CLST      57              1.0000000000
       286        58  DCM       C               8.7939061011        1.0329428135      -10.8715194123  CLST      58              1.0000000000
       287        58  DCM       H1              9.5067771941        0.5173375905      -11.5490422364  CLST      58              1.0000000000
       288        58  DCM       H2              8.3529671213        1.9267905061      -11.3607961216  CLST      58              1.0000000000
       289        58  DCM       CL1             7.4817657773       -0.1000653013      -10.4353003090  CLST      58              1.0000000000
       290        58  DCM       CL2             9.6641777796        1.5500974481       -9.3978136220  CLST      58              1.0000000000
       291        59  DCM       C               1.8405062438       12.5167306357        5.3207945767  CLST      59              1.0000000000
       292        59  DCM       H1              0.7357495185       12.6250346391        5.3532439214  CLST      59              1.0000000000
       293        59  DCM       H2              2.3393173287       13.3881311376        5.7945776947  CLST      59              1.0000000000
       294        59  DCM       CL1             2.3074222616       11.0291426525        6.1958908689  CLST      59              1.0000000000
       295        59  DCM       CL2             2.3648393341       12.4057167718        3.6158305559  CLST      59              1.0000000000
       296        60  DCM       C               5.3866238578       -7.5525158368       -3.5080654053  CLST      60              1.0000000000
       297        60  DCM       H1              4.3274860482       -7.4223559019       -3.2029577146  CLST      60              1.0000000000
       298        60  DCM       H2              5.5171713694       -7.3507151765       -4.5915975912  CLST      60              1.0000000000
       299        60  DCM       CL1             6.4002988759       -6.4094665078       -2.5821629737  CLST      60              1.0000000000
       300        60  DCM       CL2             5.8852589650       -9.2333529123       -3.1631870751  CLST      60              1.0000000000
       301        61  DCM       C               3.0841366561        2.4176974642        1.4644359058  CLST      61              1.0000000000
       302        61  DCM       H1              4.1352037677        2.1534711853        1.7073598896  CLST      61              1.0000000000
       303        61  DCM       H2              2.3782308671        1.9171523173        2.1602206746  CLST      61              1.0000000000
       304        61  DCM       CL1             2.8881510395        4.1860370516        1.6033140951  CLST      61              1.0000000000
       305        61  DCM       CL2             2.7138866262        1.8982340731       -0.2030395665  CLST      61              1.0000000000
       306        62  DCM       C               2.4992616995       -6.4503806173        5.7030617370  CLST      62              1.0000000000
       307        62  DCM       H1              1.8876349219       -6.4060221917        4.7783626777  CLST      62              1.0000000000
       308        62  DCM       H2              2.0411617665       -5.8482610597        6.5159283050  CLST      62              1.0000000000
       309        62  DCM       CL1             2.6280194066       -8.1505100680        6.2375020362  CLST      62              1.0000000000
       310        62  DCM       CL2             4.1264462610       -5.8058897163        5.3512759004  CLST      62              1.0000000000
       311        63  DCM       C               1.6265711950        3.2615876351       -7.4117075421  CLST      63              1.0000000000
       312        63  DCM       H1              1.3840043920        3.9391614621       -8.2576776911  CLST      63              1.0000000000
       313        63  DCM       H2              2.6549996525        2.8553948174       -7.5056215049  CLST      63              1.0000000000
       314        63  DCM       CL1             0.4684250260        1.9026421958       -7.4006488899  CLST      63              1.0000000000
       315        63  DCM       CL2             1.5018583142        4.1752002962       -5.8840622383  CLST      63              1.0000000000
       316        64  DCM       C               6.0806661426       -9.6691273559        5.3847332639  CLST      64              1.0000000000
       317        64  DCM       H1              6.3835761498       -9.3884712120        4.3531879409  CLST      64              1.0000000000
       318        64  DCM       H2              5.6236097106       -8.8050170647        5.9112778601  CLST      64              1.0000000000
       319        64  DCM       CL1             4.8884355345      -10.9972494774        5.2977098250  CLST      64              1.0000000000
       320        64  DCM       CL2             7.5276885181      -10.2095020578        6.2841234384  CLST      64              1.0000000000
       321        65  DCM       C               3.3688373918        7.3934539247       -5.5519180221  CLST      65              1.0000000000
       322        65  DCM       H1              2.9104402437        8.3911652045       -5.3969672718  CLST      65              1.0000000000
       323        65  DCM       H2              2.8663315742        6.6213200223       -4.9308242253  CLST      65              1.0000000000
       324        65  DCM       CL1             3.2122073706        6.9530584914       -7.2780105095  CLST      65              1.0000000000
       325        65  DCM       CL2             5.0960207587        7.4656461438       -5.0975786353  CLST      65              1.0000000000
       326        66  DCM       C              -0.9371200512        3.0124477882        1.3127058224  CLST      66              1.0000000000
       327        66  DCM       H1             -1.3624213902        2.1228826752        1.8251725823  CLST      66              1.0000000000
       328        66  DCM       H2              0.0092825737        3.3343590439        1.7937940243  CLST      66              1.0000000000
       329        66  DCM       CL1            -0.6114433743        2.6014987602       -0.3911647380  CLST      66              1.0000000000
       330        66  DCM       CL2            -2.1138981932        4.3523505696        1.3824676096  CLST      66              1.0000000000
       331        67  DCM       C              -4.2909927382        4.1588035951        4.1305538003  CLST      67              1.0000000000
       332        67  DCM       H1             -4.9408980303        3.6521820346        3.3878049686  CLST      67              1.0000000000
       333        67  DCM       H2             -3.9338784400        5.1353257270        3.7421093048  CLST      67              1.0000000000
       334        67  DCM       CL1            -5.2142813358        4.4282381518        5.6337790641  CLST      67              1.0000000000
       335        67  DCM       CL2            -2.8844674417        3.1181755535        4.4756555037  CLST      67              1.0000000000
       336        68  DCM       C               0.8803069778      -10.3902917729       -3.0362372479  CLST      68              1.0000000000
       337        68  DCM       H1              1.1507296547      -10.2038942749       -4.0968332271  CLST      68              1.0000000000
       338        68  DCM       H2              0.1855412307       -9.6119000510       -2.6582511443  CLST      68              1.0000000000
       339        68  DCM       CL1             0.0892615925      -11.9884651557       -2.9114597537  CLST      68              1.0000000000
       340        68  DCM       CL2             2.3655344294      -10.3712515827       -2.0444749164  CLST      68              1.0000000000
       341        69  DCM       C               7.5541069968       -1.8310229422        1.8939569798  CLST      69              1.0000000000
       342        69  DCM       H1              6.6184503186       -1.4146549804        2.3232773294  CLST      69              1.0000000000
       343        69  DCM       H2              7.6136117970       -1.6452490684        0.8027301832  CLST      69              1.0000000000
       344        69  DCM       CL1             8.9522785985       -1.0591354414        2.6894100189  CLST      69              1.0000000000
       345        69  DCM       CL2             7.5987876018       -3.5907305634        2.1792933077  CLST      69              1.0000000000
       346        70  DCM       C               6.8567331228       -3.4036484044        6.1623507960  CLST      70              1.0000000000
       347        70  DCM       H1              6.5571381776       -4.4718410243        6.1677338321  CLST      70              1.0000000000
       348        70  DCM       H2              6.8119835322       -2.9759456444        7.1843061956  CLST      70              1.0000000000
       349        70  DCM       CL1             8.5350705749       -3.2773368039        5.5657674823  CLST      70              1.0000000000
       350        70  DCM       CL2             5.7450793178       -2.4919553114        5.0972811554  CLST      70              1.0000000000
       351        71  DCM       C               9.6441768498        0.2930778522        6.1362563448  CLST      71              1.0000000000
       352        71  DCM       H1             10.0333845524       -0.6763630281        5.7635915722  CLST      71              1.0000000000
       353        71  DCM       H2             10.0354103136        0.5194184029        7.1508223179  CLST      71              1.0000000000
       354        71  DCM       CL1            10.1500696074        1.5871553811        5.0145204624  CLST      71              1.0000000000
       355        71  DCM       CL2             7.8592662994        0.2183257149        6.2043393753  CLST      71              1.0000000000
       356        72  DCM       C               3.7429182987       -9.1226053440        1.1069197582  CLST      72              1.0000000000
       357        72  DCM       H1              4.4072762292       -9.9919126984        0.9185667059  CLST      72              1.0000000000
       358        72  DCM       H2              2.6739407551       -9.4194926673        1.0560909189  CLST      72              1.0000000000
       359        72  DCM       CL1             4.0919433198       -8.4599949794        2.7274727577  CLST      72              1.0000000000
       360        72  DCM       CL2             4.0566500969       -7.8737491967       -0.1303752392  CLST      72              1.0000000000
       361        73  DCM       C              -0.9351974117       15.1814899306        2.3517204055  CLST      73              1.0000000000
       362        73  DCM       H1             -0.7140989452       16.0737102009        1.7279860402  CLST      73              1.0000000000
       363        73  DCM       H2             -2.0190835697       15.1117982279        2.5819606000  CLST      73              1.0000000000
       364        73  DCM       CL1            -0.4362972048       13.7134090907        1.4628290505  CLST      73              1.0000000000
       365        73  DCM       CL2            -0.0224946096       15.3024260082        3.8844290361  CLST      73              1.0000000000
       366        74  DCM       C               1.8140427499       -2.6931105744        4.7548005445  CLST      74              1.0000000000
       367        74  DCM       H1              1.7492348727       -1.6299664351        4.4412817393  CLST      74              1.0000000000
       368        74  DCM       H2              2.6836080082       -3.1970451009        4.2822955396  CLST      74              1.0000000000
       369        74  DCM       CL1             1.9964815675       -2.7677089647        6.5295536535  CLST      74              1.0000000000
       370        74  DCM       CL2             0.3146564689       -3.5318012712        4.2662402398  CLST      74              1.0000000000
       371        75  DCM       C               3.8524377594        0.7378438944        5.7429793682  CLST      75              1.0000000000
       372        75  DCM       H1              3.6290320952       -0.0735572044        5.0197111865  CLST      75              1.0000000000
       373        75  DCM       H2              4.8748354020        0.6250861266        6.1625217765  CLST      75              1.0000000000
       374        75  DCM       CL1             3.7277503272        2.3128874451        4.9091855703  CLST      75              1.0000000000
       375        75  DCM       CL2             2.6676000084        0.6769004938        7.0780527680  CLST      75              1.0000000000
       376        76  DCM       C               9.5515274924       -4.4797224354       -2.5530914828  CLST      76              1.0000000000
       377        76  DCM       H1              8.7613334644       -4.5732986489       -3.3285200971  CLST      76              1.0000000000
       378        76  DCM       H2             10.4338013365       -3.9322148226       -2.9466311092  CLST      76              1.0000000000
       379        76  DCM       CL1             8.8902616341       -3.5856008419       -1.1563798504  CLST      76              1.0000000000
       380        76  DCM       CL2            10.0615221617       -6.1122341338       -2.0323380101  CLST      76              1.0000000000
       381        77  DCM       C               9.0855406744       -7.0221695093        4.7303699819  CLST      77              1.0000000000
       382        77  DCM       H1              9.0180745055       -7.7319224374        5.5808269893  CLST      77              1.0000000000
       383        77  DCM       H2              9.6295127034       -6.0997501498        5.0224386415  CLST      77              1.0000000000
       384        77  DCM       CL1             9.9578726954       -7.8153068546        3.3880918715  CLST      77              1.0000000000
       385        77  DCM       CL2             7.4338781459       -6.5840968781        4.2096432543  CLST      77              1.0000000000
       386        78  DCM       C              -1.5568025616       11.0392446952        4.0604326184  CLST      78              1.0000000000
       387        78  DCM       H1             -0.5907125682       11.3172632551        3.5907234161  CLST      78              1.0000000000
       388        78  DCM       H2             -2.1263357428       10.3414838906        3.4102637641  CLST      78              1.0000000000
       389        78  DCM       CL1            -2.5271855416       12.5170015776        4.3201021196  CLST      78              1.0000000000
       390        78  DCM       CL2            -1.2426817988       10.2430766230        5.6291765504  CLST      78              1.0000000000
       391        79  DCM       C              -0.8793970241       -7.0564335326       -7.5397353570  CLST      79              1.0000000000
       392        79  DCM       H1             -1.9643092515       -7.1164146289       -7.7719688006  CLST      79              1.0000000000
       393        79  DCM       H2             -0.3838196911       -8.0380988367       -7.6870365954  CLST      79              1.0000000000
       394        79  DCM       CL1            -0.1204638117       -5.8547881579       -8.6242872215  CLST      79              1.0000000000
       395        79  DCM       CL2            -0.6749454568       -6.5542860143       -5.8358116715  CLST      79              1.0000000000
       396        80  DCM       C              -3.1366215060       -2.0964311804       -6.3171720654  CLST      80              1.0000000000
       397        80  DCM       H1             -3.8869798100       -1.6093929589       -6.9746785238  CLST      80              1.0000000000
       398        80  DCM       H2             -3.5819645084       -2.3785078702       -5.3401989410  CLST      80              1.0000000000
       399        80  DCM       CL1            -2.5351219020       -3.5726510976       -7.1217778794  CLST      80              1.0000000000
       400        80  DCM       CL2            -1.7891979498       -0.9575846057       -6.0332160953  CLST      80              1.0000000000
       401        81  DCM       C              -0.5282983463        6.8445887097       -4.6544427361  CLST      81              1.0000000000
       402        81  DCM       H1              0.0562418975        6.1130637122       -4.0589583104  CLST      81              1.0000000000
       403        81  DCM       H2             -0.2992854385        6.7531613872       -5.7369994368  CLST      81              1.0000000000
       404        81  DCM       CL1            -2.2687311540        6.5336902751       -4.3950162270  CLST      81              1.0000000000
       405        81  DCM       CL2            -0.1161916107        8.4952193451       -4.1065383312  CLST      81              1.0000000000
       406        82  DCM       C              -7.3193682211        5.9802459538       -4.4353828626  CLST      82              1.0000000000
       407        82  DCM       H1             -7.3237688071        6.8591856773       -3.7575791777  CLST      82              1.0000000000
       408        82  DCM       H2             -7.6156396424        6.2716024868       -5.4646428870  CLST      82              1.0000000000
       409        82  DCM       CL1            -5.6749356142        5.2873209818       -4.4827564135  CLST      82              1.0000000000
       410        82  DCM       CL2            -8.4674707617        4.7598945482       -3.8160397626  CLST      82              1.0000000000
       411        83  DCM       C               7.9006224889       -8.4677229845        0.2339174158  CLST      83              1.0000000000
       412        83  DCM       H1              7.3355249167       -8.7009222327       -0.6918582670  CLST      83              1.0000000000
       413        83  DCM       H2              8.9945458521       -8.5696072802        0.0726694787  CLST      83              1.0000000000
       414        83  DCM       CL1             7.5424262825       -6.7867511793        0.7188426530  CLST      83              1.0000000000
       415        83  DCM       CL2             7.3914214488       -9.5946039083        1.5245402923  CLST      83              1.0000000000
       416        84  DCM       C              -4.0427058469        1.4440943680       -0.1778873588  CLST      84              1.0000000000
       417        84  DCM       H1             -3.4231738302        2.3410162035       -0.3774878908  CLST      84              1.0000000000
       418        84  DCM       H2             -5.0660055181        1.5812383691       -0.5823382372  CLST      84              1.0000000000
       419        84  DCM       CL1            -3.2870100884        0.0274514316       -0.9604139095  CLST      84              1.0000000000
       420        84  DCM       CL2            -4.1428152000        1.1793505321        1.5859353058  CLST      84              1.0000000000
       421        85  DCM       C             -10.5399939021       -5.5984538708        1.0128794491  CLST      85              1.0000000000
       422        85  DCM       H1            -10.2903044574       -6.1885701865        1.9183388411  CLST      85              1.0000000000
       423        85  DCM       H2            -11.4248774809       -6.0231881563        0.4950886043  CLST      85              1.0000000000
       424        85  DCM       CL1           -10.9079269878       -3.9189148062        1.4966902867  CLST      85              1.0000000000
       425        85  DCM       CL2            -9.1398907727       -5.6236362232       -0.0977048430  CLST      85              1.0000000000
       426        86  DCM       C               3.1025888359        0.7336940607       -4.7977871122  CLST      86              1.0000000000
       427        86  DCM       H1              2.7441576227        0.3264877734       -3.8290311312  CLST      86              1.0000000000
       428        86  DCM       H2              2.5676469357        1.6705292212       -5.0520438173  CLST      86              1.0000000000
       429        86  DCM       CL1             4.8491571533        1.0782664922       -4.6869128330  CLST      86              1.0000000000
       430        86  DCM       CL2             2.8135539896       -0.4698848844       -6.0839440084  CLST      86              1.0000000000
       431        87  DCM       C               3.4792944267        5.0289976922       -2.1588747520  CLST      87              1.0000000000
       432        87  DCM       H1              3.5447408691        6.1348544202       -2.2157957430  CLST      87              1.0000000000
       433        87  DCM       H2              3.8595583316        4.6553150567       -1.1854790250  CLST      87              1.0000000000
       434        87  DCM       CL1             1.7754737431        4.5357783070       -2.3460036810  CLST      87              1.0000000000
       435        87  DCM       CL2             4.4501072210        4.3269144016       -3.4773217294  CLST      87              1.0000000000
       436        88  DCM       C               5.8779713706       -2.2967112465       -2.1721710150  CLST      88              1.0000000000
       437        88  DCM       H1              6.1978873513       -2.2684297750       -1.1107305330  CLST      88              1.0000000000
       438        88  DCM       H2              5.9015960556       -3.3358437368       -2.5641302873  CLST      88              1.0000000000
       439        88  DCM       CL1             4.2150985953       -1.6568284122       -2.2884909297  CLST      88              1.0000000000
       440        88  DCM       CL2             6.9887680118       -1.2839248828       -3.1328719924  CLST      88              1.0000000000
       441        89  DCM       C               8.6391676441        1.6919036173       -4.4528120786  CLST      89              1.0000000000
       442        89  DCM       H1              9.1360091623        1.3783215871       -3.5109470731  CLST      89              1.0000000000
       443        89  DCM       H2              7.8945264933        0.9384357477       -4.7805285103  CLST      89              1.0000000000
       444        89  DCM       CL1             7.8070583875        3.2501996821       -4.1884668087  CLST      89              1.0000000000
       445        89  DCM       CL2             9.8746471950        1.8744913319       -5.7291768799  CLST      89              1.0000000000
       446        90  DCM       C             -14.9706229187       -7.4239736735       -1.4663366783  CLST      90              1.0000000000
       447        90  DCM       H1            -16.0053926108       -7.7875473780       -1.2924202061  CLST      90              1.0000000000
       448        90  DCM       H2            -14.9650808517       -6.5454458203       -2.1465799872  CLST      90              1.0000000000
       449        90  DCM       CL1           -14.2491378721       -6.9515881880        0.0992113901  CLST      90              1.0000000000
       450        90  DCM       CL2           -14.0086640516       -8.7385659773       -2.2032818879  CLST      90              1.0000000000
       451        91  DCM       C              -4.6529617793       -3.3063331003       -2.2375305332  CLST      91              1.0000000000
       452        91  DCM       H1             -4.8974453712       -3.8616224171       -1.3069511429  CLST      91              1.0000000000
       453        91  DCM       H2             -5.0608056415       -2.2737447287       -2.2008075039  CLST      91              1.0000000000
       454        91  DCM       CL1            -5.3625787892       -4.1648646072       -3.6358176642  CLST      91              1.0000000000
       455        91  DCM       CL2            -2.8765906941       -3.2288124181       -2.4214471789  CLST      91              1.0000000000
       456        92  DCM       C              10.0648085483        4.3367482634       -1.7515865820  CLST      92              1.0000000000
       457        92  DCM       H1              9.8228232716        4.8320085074       -2.7156845923  CLST      92              1.0000000000
       458        92  DCM       H2              9.1918207173        3.7721641358       -1.3620667258  CLST      92              1.0000000000
       459        92  DCM       CL1            11.4203284078        3.1994736090       -2.0058828079  CLST      92              1.0000000000
       460        92  DCM       CL2            10.5285015660        5.5882486295       -0.5625070108  CLST      92              1.0000000000
       461        93  DCM       C              -3.8332915895        8.7661875770       -1.3746111579  CLST      93              1.0000000000
       462        93  DCM       H1             -3.7232236515        9.8662975440       -1.2705324130  CLST      93              1.0000000000
       463        93  DCM       H2             -2.9816856553        8.3300715127       -1.9376585612  CLST      93              1.0000000000
       464        93  DCM       CL1            -3.8934617033        8.0329265382        0.2543744916  CLST      93              1.0000000000
       465        93  DCM       CL2            -5.3469821550        8.4112174511       -2.2533594911  CLST      93              1.0000000000
       466        94  DCM       C              -0.6240315402        3.9138316448        7.3817899818  CLST      94              1.0000000000
       467        94  DCM       H1             -0.6683014289        3.5980682191        6.3186278307  CLST      94              1.0000000000
       468        94  DCM       H2              0.1345223159        4.7114759791        7.5278881166  CLST      94              1.0000000000
       469        94  DCM       CL1            -2.2273637323        4.5325132822        7.8771448222  CLST      94              1.0000000000
       470        94  DCM       CL2            -0.1852976380        2.5019056285        8.3849156800  CLST      94              1.0000000000
       471        95  DCM       C               7.0584262722        6.8755980259       -0.1818416332  CLST      95              1.0000000000
       472        95  DCM       H1              7.6773636971        6.1151523154        0.3395512657  CLST      95              1.0000000000
       473        95  DCM       H2              7.4683730700        7.8968334626       -0.0325229261  CLST      95              1.0000000000
       474        95  DCM       CL1             7.0354057173        6.5091478938       -1.9322598569  CLST      95              1.0000000000
       475        95  DCM       CL2             5.3978906326        6.8116258468        0.4749793002  CLST      95              1.0000000000
