* PRE_MLPOT:MONOMER_REPACK
*  DATE:     6/28/26      1:58:19      CREATED BY USER: boittier
*
       475  EXT
         1         1  DCM       C               0.9231251618        1.4562752092       -0.3077114796  CLST      1               1.0000000000
         2         1  DCM       H1              1.0605899405        0.3797198429       -0.5366256995  CLST      1               1.0000000000
         3         1  DCM       H2              0.6562916677        1.6072024963        0.7596588478  CLST      1               1.0000000000
         4         1  DCM       CL1             2.4510307478        2.3148999039       -0.6531703934  CLST      1               1.0000000000
         5         1  DCM       CL2            -0.3878143903        2.1034240813       -1.3346089780  CLST      1               1.0000000000
         6         2  DCM       C              -2.8718222016        1.5766187712        2.1652643472  CLST      2               1.0000000000
         7         2  DCM       H1             -2.2676749811        2.2631096283        2.7927258719  CLST      2               1.0000000000
         8         2  DCM       H2             -3.8223401817        1.3018157251        2.6690449119  CLST      2               1.0000000000
         9         2  DCM       CL1            -3.2430792458        2.3848570907        0.6154296355  CLST      2               1.0000000000
        10         2  DCM       CL2            -1.9252575895        0.0929604260        1.8653303244  CLST      2               1.0000000000
        11         3  DCM       C               0.1718342325        0.6945494708        0.8420437614  CLST      3               1.0000000000
        12         3  DCM       H1             -0.5030760464        1.5748823565        0.8717790054  CLST      3               1.0000000000
        13         3  DCM       H2             -0.3618136126       -0.2027890201        0.4673508656  CLST      3               1.0000000000
        14         3  DCM       CL1             1.5459020354        1.0452751291       -0.2449647221  CLST      3               1.0000000000
        15         3  DCM       CL2             0.7624609692        0.3700858233        2.4965865576  CLST      3               1.0000000000
        16         4  DCM       C               1.4052720217       -1.5507758862        2.8026080785  CLST      4               1.0000000000
        17         4  DCM       H1              1.5814709481       -2.6419916787        2.6903904628  CLST      4               1.0000000000
        18         4  DCM       H2              2.2514881544       -1.0602322629        3.3281396245  CLST      4               1.0000000000
        19         4  DCM       CL1             1.2257092704       -0.8213548166        1.1806107700  CLST      4               1.0000000000
        20         4  DCM       CL2            -0.0903553371       -1.2988926956        3.7470449051  CLST      4               1.0000000000
        21         5  DCM       C              -1.5214397411       -0.8833836562        2.6694481570  CLST      5               1.0000000000
        22         5  DCM       H1             -1.2475036496       -0.1845502883        1.8513410819  CLST      5               1.0000000000
        23         5  DCM       H2             -0.6368188397       -1.4552222571        3.0189742766  CLST      5               1.0000000000
        24         5  DCM       CL1            -2.1815990665        0.0554743976        4.0399041841  CLST      5               1.0000000000
        25         5  DCM       CL2            -2.7545432351       -2.0286287934        2.0660905075  CLST      5               1.0000000000
        26         6  DCM       C              -0.4571303510        0.8131842431       -0.6285295795  CLST      6               1.0000000000
        27         6  DCM       H1             -1.1937542506        0.0551306800       -0.2916502216  CLST      6               1.0000000000
        28         6  DCM       H2             -0.9357278391        1.5736183011       -1.2811897258  CLST      6               1.0000000000
        29         6  DCM       CL1             0.2389251575        1.6353296835        0.7983903698  CLST      6               1.0000000000
        30         6  DCM       CL2             0.8400162813       -0.0020709350       -1.5502148954  CLST      6               1.0000000000
        31         7  DCM       C              -0.1213692848        2.7937536145       -1.4531869644  CLST      7               1.0000000000
        32         7  DCM       H1             -0.7763373066        3.6826080763       -1.5723923904  CLST      7               1.0000000000
        33         7  DCM       H2             -0.1915785957        2.1268789218       -2.3378932011  CLST      7               1.0000000000
        34         7  DCM       CL1             1.5729935147        3.3328846467       -1.2767309705  CLST      7               1.0000000000
        35         7  DCM       CL2            -0.6256723083        1.8810388480       -0.0010347909  CLST      7               1.0000000000
        36         8  DCM       C               0.3161141636        0.0511854573       -1.7740597379  CLST      8               1.0000000000
        37         8  DCM       H1              0.4649217924       -1.0142331814       -1.4972097592  CLST      8               1.0000000000
        38         8  DCM       H2              0.4115849017        0.7109900652       -0.8860871636  CLST      8               1.0000000000
        39         8  DCM       CL1             1.5505333532        0.5160275130       -2.9800294311  CLST      8               1.0000000000
        40         8  DCM       CL2            -1.3173340868        0.2488690945       -2.4741369080  CLST      8               1.0000000000
        41         9  DCM       C              -2.3979163102       -0.3733584800       -2.4264810226  CLST      9               1.0000000000
        42         9  DCM       H1             -2.6315592143       -0.6527915466       -3.4744902321  CLST      9               1.0000000000
        43         9  DCM       H2             -3.0458984211       -0.9281333353       -1.7150604926  CLST      9               1.0000000000
        44         9  DCM       CL1            -0.6881403453       -0.7692290970       -2.0887115317  CLST      9               1.0000000000
        45         9  DCM       CL2            -2.6673936420        1.3815261212       -2.2175237360  CLST      9               1.0000000000
        46        10  DCM       C              -1.8742364679       -0.6330492764       -0.4926348315  CLST      10              1.0000000000
        47        10  DCM       H1             -2.3622375576       -1.5497331100       -0.8863133056  CLST      10              1.0000000000
        48        10  DCM       H2             -1.4118181889       -0.0440339333       -1.3118285928  CLST      10              1.0000000000
        49        10  DCM       CL1            -3.1027531666        0.3756682600        0.3252971958  CLST      10              1.0000000000
        50        10  DCM       CL2            -0.6024166138       -1.1043154908        0.6718482153  CLST      10              1.0000000000
        51        11  DCM       C               0.9731023406        0.6106949999       -2.2530466500  CLST      11              1.0000000000
        52        11  DCM       H1              0.7701639202        0.2025402824       -1.2398089834  CLST      11              1.0000000000
        53        11  DCM       H2              0.3195492354        0.1359422994       -3.0153532541  CLST      11              1.0000000000
        54        11  DCM       CL1             0.6687966832        2.3728827010       -2.2400356638  CLST      11              1.0000000000
        55        11  DCM       CL2             2.6814643280        0.2921159739       -2.6719974577  CLST      11              1.0000000000
        56        12  DCM       C               1.9690959266        2.0176881522        1.9111433088  CLST      12              1.0000000000
        57        12  DCM       H1              2.9532688226        1.8318166539        2.3884796281  CLST      12              1.0000000000
        58        12  DCM       H2              1.8946777362        1.4962300978        0.9332575985  CLST      12              1.0000000000
        59        12  DCM       CL1             0.6758781833        1.4135680142        2.9872846777  CLST      12              1.0000000000
        60        12  DCM       CL2             1.7703686377        3.7743027448        1.6524235924  CLST      12              1.0000000000
        61        13  DCM       C              -2.3449978593       -2.1230634168       -1.9195832682  CLST      13              1.0000000000
        62        13  DCM       H1             -1.5847803608       -1.3149012647       -1.9193788147  CLST      13              1.0000000000
        63        13  DCM       H2             -2.2208230968       -2.7862849765       -1.0364231747  CLST      13              1.0000000000
        64        13  DCM       CL1            -3.9772162114       -1.3923263625       -1.8672469958  CLST      13              1.0000000000
        65        13  DCM       CL2            -2.1620468253       -3.0924585023       -3.4109857120  CLST      13              1.0000000000
        66        14  DCM       C              -1.8817971900        2.7006231054       -2.8325618679  CLST      14              1.0000000000
        67        14  DCM       H1             -2.9055386205        2.9845064691       -2.5097244216  CLST      14              1.0000000000
        68        14  DCM       H2             -1.3262950092        2.2088473986       -2.0072418918  CLST      14              1.0000000000
        69        14  DCM       CL1            -1.9965112059        1.5704778761       -4.2124405613  CLST      14              1.0000000000
        70        14  DCM       CL2            -0.9964258022        4.1703251590       -3.3301477660  CLST      14              1.0000000000
        71        15  DCM       C              -1.6973373168       -3.0679274123       -3.1715293254  CLST      15              1.0000000000
        72        15  DCM       H1             -1.8058775549       -2.9683661997       -2.0711862963  CLST      15              1.0000000000
        73        15  DCM       H2             -2.5464018571       -3.6297418379       -3.6076219237  CLST      15              1.0000000000
        74        15  DCM       CL1            -1.6367394383       -1.4348105243       -3.9013202647  CLST      15              1.0000000000
        75        15  DCM       CL2            -0.1812410494       -3.9459712757       -3.5260903807  CLST      15              1.0000000000
        76        16  DCM       C              -2.5417174272       -2.6963015555        0.9356441318  CLST      16              1.0000000000
        77        16  DCM       H1             -1.9472030649       -3.6038406364        1.1737260216  CLST      16              1.0000000000
        78        16  DCM       H2             -2.2793253407       -1.8623820523        1.6196210547  CLST      16              1.0000000000
        79        16  DCM       CL1            -4.2805056526       -3.0662966729        1.0990046974  CLST      16              1.0000000000
        80        16  DCM       CL2            -2.1999883736       -2.2067544374       -0.7456045730  CLST      16              1.0000000000
        81        17  DCM       C               0.0093350732       -2.3776476380        0.8985121275  CLST      17              1.0000000000
        82        17  DCM       H1              0.8321248053       -2.6474258982        0.2045284425  CLST      17              1.0000000000
        83        17  DCM       H2             -0.9482434596       -2.2647142138        0.3496993495  CLST      17              1.0000000000
        84        17  DCM       CL1            -0.1646518103       -3.6634995810        2.1219744701  CLST      17              1.0000000000
        85        17  DCM       CL2             0.4061403999       -0.8401483517        1.7105829191  CLST      17              1.0000000000
        86        18  DCM       C               2.8278462915       -1.5645706392        1.6257368700  CLST      18              1.0000000000
        87        18  DCM       H1              1.8598382195       -2.0898454809        1.4839136772  CLST      18              1.0000000000
        88        18  DCM       H2              3.6687403116       -2.2864888349        1.6917182160  CLST      18              1.0000000000
        89        18  DCM       CL1             3.1037615274       -0.4711901857        0.2399965186  CLST      18              1.0000000000
        90        18  DCM       CL2             2.7581379474       -0.6138182615        3.1357027108  CLST      18              1.0000000000
        91        19  DCM       C              -1.1924526023        0.3335492620        0.4365872280  CLST      19              1.0000000000
        92        19  DCM       H1             -0.2145640046        0.4908929905       -0.0645662535  CLST      19              1.0000000000
        93        19  DCM       H2             -1.8088510346       -0.4121457029       -0.1072566217  CLST      19              1.0000000000
        94        19  DCM       CL1            -0.9003879497       -0.2521600742        2.1007464556  CLST      19              1.0000000000
        95        19  DCM       CL2            -2.0658597201        1.8906211542        0.4882481995  CLST      19              1.0000000000
        96        20  DCM       C              -1.4238428951       -2.3081465720       -1.2123290816  CLST      20              1.0000000000
        97        20  DCM       H1             -2.1436764128       -2.9158695670       -0.6256617534  CLST      20              1.0000000000
        98        20  DCM       H2             -0.9298028175       -1.5460408098       -0.5734428541  CLST      20              1.0000000000
        99        20  DCM       CL1            -0.1754050731       -3.3869231545       -1.9010966980  CLST      20              1.0000000000
       100        20  DCM       CL2            -2.3113037599       -1.4788700691       -2.5233401833  CLST      20              1.0000000000
       101        21  DCM       C               1.7193921718        1.3715031953       -0.3871419151  CLST      21              1.0000000000
       102        21  DCM       H1              1.7247069931        2.4391690373       -0.0775140634  CLST      21              1.0000000000
       103        21  DCM       H2              1.2725992437        1.2512305963       -1.3935423397  CLST      21              1.0000000000
       104        21  DCM       CL1             3.4007938311        0.7673927804       -0.4188071142  CLST      21              1.0000000000
       105        21  DCM       CL2             0.7589879559        0.4227610408        0.7825450206  CLST      21              1.0000000000
       106        22  DCM       C               1.8175648564        2.2729655430       -1.0837860158  CLST      22              1.0000000000
       107        22  DCM       H1              1.8850979911        2.6576085252       -2.1225334942  CLST      22              1.0000000000
       108        22  DCM       H2              2.1559682463        3.0339411759       -0.3507926215  CLST      22              1.0000000000
       109        22  DCM       CL1             0.1194577230        1.8573695321       -0.7332897400  CLST      22              1.0000000000
       110        22  DCM       CL2             2.8376630673        0.8133818091       -0.9346849372  CLST      22              1.0000000000
       111        23  DCM       C               2.8022523572        1.5207433413       -2.1300770423  CLST      23              1.0000000000
       112        23  DCM       H1              2.8304679804        0.6092300366       -1.4975506988  CLST      23              1.0000000000
       113        23  DCM       H2              3.6106839903        2.2291602384       -1.8503895550  CLST      23              1.0000000000
       114        23  DCM       CL1             3.0035168626        1.0519249204       -3.8420915392  CLST      23              1.0000000000
       115        23  DCM       CL2             1.2258164901        2.3268353686       -1.9119585237  CLST      23              1.0000000000
       116        24  DCM       C              -1.8891968581        2.1177312897        2.6734815383  CLST      24              1.0000000000
       117        24  DCM       H1             -2.9348875607        2.0792616585        2.3017994983  CLST      24              1.0000000000
       118        24  DCM       H2             -1.4414945727        1.1023266002        2.7007127992  CLST      24              1.0000000000
       119        24  DCM       CL1            -0.9143165326        3.1518966876        1.5882763836  CLST      24              1.0000000000
       120        24  DCM       CL2            -1.8851803423        2.8008421998        4.3250103100  CLST      24              1.0000000000
       121        25  DCM       C              -1.6499161966        1.4195279090        1.7089153095  CLST      25              1.0000000000
       122        25  DCM       H1             -2.7533450837        1.4522884224        1.5974827424  CLST      25              1.0000000000
       123        25  DCM       H2             -1.3280529852        0.4806165336        2.2043758714  CLST      25              1.0000000000
       124        25  DCM       CL1            -0.9072040425        1.5031947756        0.0861329251  CLST      25              1.0000000000
       125        25  DCM       CL2            -1.1205111309        2.8097162915        2.6995596693  CLST      25              1.0000000000
       126        26  DCM       C               1.2973346702       -2.7685199842       -2.2065393013  CLST      26              1.0000000000
       127        26  DCM       H1              0.7695049800       -2.2034824575       -1.4110373849  CLST      26              1.0000000000
       128        26  DCM       H2              1.9403325127       -3.5606719964       -1.7703627294  CLST      26              1.0000000000
       129        26  DCM       CL1             2.3125541912       -1.6319986352       -3.1386806042  CLST      26              1.0000000000
       130        26  DCM       CL2             0.0860936129       -3.5221418054       -3.2835095045  CLST      26              1.0000000000
       131        27  DCM       C              -1.6334973728       -2.0837395870       -1.0122826453  CLST      27              1.0000000000
       132        27  DCM       H1             -1.2895625596       -2.0021358744       -2.0646885302  CLST      27              1.0000000000
       133        27  DCM       H2             -1.1518968338       -1.3131705211       -0.3740612011  CLST      27              1.0000000000
       134        27  DCM       CL1            -3.4040043251       -1.8557274809       -0.9602283828  CLST      27              1.0000000000
       135        27  DCM       CL2            -1.2172972451       -3.7044399832       -0.3855069823  CLST      27              1.0000000000
       136        28  DCM       C              -0.1868371260       -0.1333878604       -1.9698550406  CLST      28              1.0000000000
       137        28  DCM       H1             -0.6324842940       -0.4763123371       -1.0123928409  CLST      28              1.0000000000
       138        28  DCM       H2              0.8635939313       -0.4782272303       -2.0653686608  CLST      28              1.0000000000
       139        28  DCM       CL1            -1.1426896155       -0.7937731868       -3.3280995750  CLST      28              1.0000000000
       140        28  DCM       CL2            -0.2110133267        1.6528828898       -2.0200888476  CLST      28              1.0000000000
       141        29  DCM       C               0.6523063195       -3.2162551371       -0.9097652112  CLST      29              1.0000000000
       142        29  DCM       H1              0.2054047638       -2.9755758802       -1.8963197904  CLST      29              1.0000000000
       143        29  DCM       H2              0.1824661882       -4.1196492338       -0.4673198228  CLST      29              1.0000000000
       144        29  DCM       CL1             2.4020139955       -3.5158292894       -1.1214353519  CLST      29              1.0000000000
       145        29  DCM       CL2             0.3977890783       -1.8270822074        0.1863609254  CLST      29              1.0000000000
       146        30  DCM       C              -1.0477143434       -1.1856091493       -2.7170824905  CLST      30              1.0000000000
       147        30  DCM       H1             -1.0106435964       -0.6543853245       -1.7439701026  CLST      30              1.0000000000
       148        30  DCM       H2             -0.9658292438       -0.4727640584       -3.5644219161  CLST      30              1.0000000000
       149        30  DCM       CL1             0.3087437652       -2.3455363579       -2.8007745375  CLST      30              1.0000000000
       150        30  DCM       CL2            -2.6047868878       -2.0573811515       -2.8460201424  CLST      30              1.0000000000
       151        31  DCM       C               2.8241052016        0.7906831814        0.1115087219  CLST      31              1.0000000000
       152        31  DCM       H1              1.7451061161        1.0249266404        0.2308388862  CLST      31              1.0000000000
       153        31  DCM       H2              3.3180418554        0.6626607709        1.0985050607  CLST      31              1.0000000000
       154        31  DCM       CL1             2.9872946181       -0.7259446594       -0.8212181261  CLST      31              1.0000000000
       155        31  DCM       CL2             3.6169563118        2.1342095813       -0.7618340731  CLST      31              1.0000000000
       156        32  DCM       C              -3.0564073236        1.0131365377        0.1161252951  CLST      32              1.0000000000
       157        32  DCM       H1             -3.5182403661        1.6004913122        0.9357901323  CLST      32              1.0000000000
       158        32  DCM       H2             -2.8815566600       -0.0372693098        0.4273960469  CLST      32              1.0000000000
       159        32  DCM       CL1            -4.1523603873        1.0230435094       -1.2920144204  CLST      32              1.0000000000
       160        32  DCM       CL2            -1.4978224582        1.7564970751       -0.3312447717  CLST      32              1.0000000000
       161        33  DCM       C              -1.8367193068        2.4596010780        1.8936315760  CLST      33              1.0000000000
       162        33  DCM       H1             -1.2529241596        1.8713345536        1.1526821667  CLST      33              1.0000000000
       163        33  DCM       H2             -1.7940073030        3.5435808938        1.6640093815  CLST      33              1.0000000000
       164        33  DCM       CL1            -3.5417184463        1.9243100956        1.8525947516  CLST      33              1.0000000000
       165        33  DCM       CL2            -1.1553760800        2.1867539746        3.5235864697  CLST      33              1.0000000000
       166        34  DCM       C              -0.8045048081       -0.1746651994       -1.9425628069  CLST      34              1.0000000000
       167        34  DCM       H1             -0.0961136226        0.4493815929       -1.3577223527  CLST      34              1.0000000000
       168        34  DCM       H2             -1.5861468468        0.4512593629       -2.4203414313  CLST      34              1.0000000000
       169        34  DCM       CL1             0.1003818849       -1.0488210284       -3.2133574943  CLST      34              1.0000000000
       170        34  DCM       CL2            -1.5887746712       -1.3466096949       -0.8449986878  CLST      34              1.0000000000
       171        35  DCM       C               0.6381087921       -1.7553972279        2.4792105507  CLST      35              1.0000000000
       172        35  DCM       H1              0.6821982829       -1.4646878518        3.5495698030  CLST      35              1.0000000000
       173        35  DCM       H2             -0.3704731865       -2.1322087888        2.2076886842  CLST      35              1.0000000000
       174        35  DCM       CL1             1.0148692185       -0.3276471813        1.4714004249  CLST      35              1.0000000000
       175        35  DCM       CL2             1.8365164891       -3.0466834734        2.1780919418  CLST      35              1.0000000000
       176        36  DCM       C               2.3059074110       -0.4739259925       -0.3249236797  CLST      36              1.0000000000
       177        36  DCM       H1              2.1960979789        0.1720455095        0.5722015414  CLST      36              1.0000000000
       178        36  DCM       H2              2.1790620598        0.1154674273       -1.2566078873  CLST      36              1.0000000000
       179        36  DCM       CL1             3.9328000079       -1.2120820639       -0.3179643285  CLST      36              1.0000000000
       180        36  DCM       CL2             1.0636338508       -1.7579032801       -0.2753830231  CLST      36              1.0000000000
       181        37  DCM       C               2.7386694413       -3.8490309792       -0.5988525166  CLST      37              1.0000000000
       182        37  DCM       H1              1.6802708072       -3.5934978192       -0.8170014912  CLST      37              1.0000000000
       183        37  DCM       H2              2.9755547581       -3.6923014606        0.4743049658  CLST      37              1.0000000000
       184        37  DCM       CL1             3.0200210683       -5.5648960932       -1.0141058767  CLST      37              1.0000000000
       185        37  DCM       CL2             3.8021992648       -2.8020285432       -1.5810026878  CLST      37              1.0000000000
       186        38  DCM       C              -0.1904802160        1.9309833776        1.4626185807  CLST      38              1.0000000000
       187        38  DCM       H1             -0.3533494432        0.8690079819        1.7439967076  CLST      38              1.0000000000
       188        38  DCM       H2              0.7955336134        2.2923981762        1.8217865388  CLST      38              1.0000000000
       189        38  DCM       CL1            -0.2567867536        2.0796352988       -0.3145987309  CLST      38              1.0000000000
       190        38  DCM       CL2            -1.4732285233        2.9344508233        2.1922115455  CLST      38              1.0000000000
       191        39  DCM       C               3.0132617621        0.5527065510        0.2841960233  CLST      39              1.0000000000
       192        39  DCM       H1              2.3802188993        1.0090610158       -0.5054276921  CLST      39              1.0000000000
       193        39  DCM       H2              3.3196394225        1.3094579723        1.0369669542  CLST      39              1.0000000000
       194        39  DCM       CL1             2.0805026037       -0.7358056186        1.1001428614  CLST      39              1.0000000000
       195        39  DCM       CL2             4.4776769097       -0.1430436793       -0.4707068256  CLST      39              1.0000000000
       196        40  DCM       C              -2.6643168970       -2.8331973252        0.1878473862  CLST      40              1.0000000000
       197        40  DCM       H1             -1.6272208775       -2.4899010648       -0.0161102855  CLST      40              1.0000000000
       198        40  DCM       H2             -2.6664793687       -3.7361501315        0.8329674671  CLST      40              1.0000000000
       199        40  DCM       CL1            -3.5611172913       -1.5263063487        1.0144687622  CLST      40              1.0000000000
       200        40  DCM       CL2            -3.4580185738       -3.2301314430       -1.3630136579  CLST      40              1.0000000000
       201        41  DCM       C               0.8577888568       -1.6353955801       -1.7376033669  CLST      41              1.0000000000
       202        41  DCM       H1              1.2877093140       -2.4764028553       -1.1545614564  CLST      41              1.0000000000
       203        41  DCM       H2              0.0264974729       -1.1548432441       -1.1837331285  CLST      41              1.0000000000
       204        41  DCM       CL1             2.1344338158       -0.4231211232       -2.0436161620  CLST      41              1.0000000000
       205        41  DCM       CL2             0.2379017999       -2.2689392587       -3.2884569031  CLST      41              1.0000000000
       206        42  DCM       C              -0.4014529334        2.7879218158       -0.1479326282  CLST      42              1.0000000000
       207        42  DCM       H1              0.3418118882        2.9040665882        0.6693716964  CLST      42              1.0000000000
       208        42  DCM       H2              0.0694478838        2.9443636263       -1.1398551473  CLST      42              1.0000000000
       209        42  DCM       CL1            -1.0882637037        1.1401051210       -0.0839483279  CLST      42              1.0000000000
       210        42  DCM       CL2            -1.7005328523        3.9931006049        0.0717404313  CLST      42              1.0000000000
       211        43  DCM       C               0.1476139504       -1.7085250253        2.6280027926  CLST      43              1.0000000000
       212        43  DCM       H1              0.9031926976       -2.3238645598        3.1607710907  CLST      43              1.0000000000
       213        43  DCM       H2              0.6357109735       -0.9959935089        1.9315196730  CLST      43              1.0000000000
       214        43  DCM       CL1            -0.9367840000       -2.7752974216        1.6917201098  CLST      43              1.0000000000
       215        43  DCM       CL2            -0.7996903759       -0.7856775100        3.8276421007  CLST      43              1.0000000000
       216        44  DCM       C               1.0087234205        1.3780305618       -2.0321362909  CLST      44              1.0000000000
       217        44  DCM       H1              1.3914511431        2.3129057452       -2.4891907826  CLST      44              1.0000000000
       218        44  DCM       H2              1.0815816268        1.4243316728       -0.9273310480  CLST      44              1.0000000000
       219        44  DCM       CL1            -0.7028598170        1.1532181739       -2.4975091349  CLST      44              1.0000000000
       220        44  DCM       CL2             1.9806528026        0.0004345030       -2.6240737582  CLST      44              1.0000000000
       221        45  DCM       C               0.0946087858        2.7641936149        2.7991054222  CLST      45              1.0000000000
       222        45  DCM       H1             -0.2098197610        1.8152122881        2.3093532296  CLST      45              1.0000000000
       223        45  DCM       H2             -0.5287528674        3.6105323236        2.4430194399  CLST      45              1.0000000000
       224        45  DCM       CL1            -0.0879246097        2.6056461450        4.5691361469  CLST      45              1.0000000000
       225        45  DCM       CL2             1.8000293636        3.1022083099        2.3961510663  CLST      45              1.0000000000
       226        46  DCM       C               2.0838314522       -2.9399289518       -3.0457838930  CLST      46              1.0000000000
       227        46  DCM       H1              1.5779241625       -3.2729984229       -3.9773701695  CLST      46              1.0000000000
       228        46  DCM       H2              1.6879552956       -1.9598394148       -2.7070914047  CLST      46              1.0000000000
       229        46  DCM       CL1             1.8042065740       -4.1548656559       -1.7654146012  CLST      46              1.0000000000
       230        46  DCM       CL2             3.8340182929       -2.7848525365       -3.3679727665  CLST      46              1.0000000000
       231        47  DCM       C               2.0355452246       -0.8399442331       -2.4521090068  CLST      47              1.0000000000
       232        47  DCM       H1              2.2492415716       -1.6169405304       -1.6895032510  CLST      47              1.0000000000
       233        47  DCM       H2              2.8250791135       -0.0601561584       -2.4523574572  CLST      47              1.0000000000
       234        47  DCM       CL1             1.9774982774       -1.6050970916       -4.0648015873  CLST      47              1.0000000000
       235        47  DCM       CL2             0.4625032905       -0.0759226560       -2.0857321573  CLST      47              1.0000000000
       236        48  DCM       C              -0.6184945187        2.4888837385       -2.3470442419  CLST      48              1.0000000000
       237        48  DCM       H1             -1.2745409663        2.6208815311       -3.2332450513  CLST      48              1.0000000000
       238        48  DCM       H2             -1.0773371603        2.9325241898       -1.4398906266  CLST      48              1.0000000000
       239        48  DCM       CL1             0.9469678261        3.2915409196       -2.6609162642  CLST      48              1.0000000000
       240        48  DCM       CL2            -0.3667959737        0.7439073211       -2.0708639537  CLST      48              1.0000000000
       241        49  DCM       C               2.8452417322       -0.9651298371        2.6413890972  CLST      49              1.0000000000
       242        49  DCM       H1              3.0293100691       -1.8079237250        1.9421039415  CLST      49              1.0000000000
       243        49  DCM       H2              2.5058474651       -0.0593747109        2.0956663598  CLST      49              1.0000000000
       244        49  DCM       CL1             1.5841205368       -1.4467440698        3.8114812870  CLST      49              1.0000000000
       245        49  DCM       CL2             4.3604372384       -0.5836521473        3.5099378290  CLST      49              1.0000000000
       246        50  DCM       C              -1.3723429248        0.9543642409       -2.6244275071  CLST      50              1.0000000000
       247        50  DCM       H1             -0.9216150399        0.8384768306       -1.6161244281  CLST      50              1.0000000000
       248        50  DCM       H2             -1.9663718640        0.0604233822       -2.9013374259  CLST      50              1.0000000000
       249        50  DCM       CL1            -2.4440963273        2.3833579065       -2.6200423589  CLST      50              1.0000000000
       250        50  DCM       CL2            -0.0645999272        1.1684303222       -3.8217401875  CLST      50              1.0000000000
       251        51  DCM       C              -1.7346131733       -3.2541613237        1.7699260589  CLST      51              1.0000000000
       252        51  DCM       H1             -1.9764897569       -2.5153254150        0.9780163702  CLST      51              1.0000000000
       253        51  DCM       H2             -0.8607072334       -3.8762462449        1.4814594591  CLST      51              1.0000000000
       254        51  DCM       CL1            -1.3546746653       -2.3850598697        3.2846767709  CLST      51              1.0000000000
       255        51  DCM       CL2            -3.1457903637       -4.3204427802        2.0221535960  CLST      51              1.0000000000
       256        52  DCM       C              -2.6302938352        2.4818195042        0.4291321474  CLST      52              1.0000000000
       257        52  DCM       H1             -2.7386426234        1.5928838046       -0.2291838693  CLST      52              1.0000000000
       258        52  DCM       H2             -2.0136878305        3.2646941315       -0.0560752992  CLST      52              1.0000000000
       259        52  DCM       CL1            -1.8350327493        1.9831144200        1.9503788156  CLST      52              1.0000000000
       260        52  DCM       CL2            -4.2511160499        3.1513130352        0.7732600869  CLST      52              1.0000000000
       261        53  DCM       C               0.5887087987       -1.6284866022       -2.6419114427  CLST      53              1.0000000000
       262        53  DCM       H1              1.2922267298       -1.4968645090       -1.7931089842  CLST      53              1.0000000000
       263        53  DCM       H2              1.0930245002       -2.1091453749       -3.5066032336  CLST      53              1.0000000000
       264        53  DCM       CL1            -0.7714282842       -2.6613479984       -2.1107478095  CLST      53              1.0000000000
       265        53  DCM       CL2            -0.0220427315       -0.0245151731       -3.1405156595  CLST      53              1.0000000000
       266        54  DCM       C               2.7303082677       -2.4726136636        2.6407179426  CLST      54              1.0000000000
       267        54  DCM       H1              2.7496753919       -3.5766653751        2.7174162173  CLST      54              1.0000000000
       268        54  DCM       H2              3.6159662881       -2.0209838284        3.1390898935  CLST      54              1.0000000000
       269        54  DCM       CL1             2.7299578676       -2.0007805379        0.9141968613  CLST      54              1.0000000000
       270        54  DCM       CL2             1.2472746258       -1.8622298862        3.4261773944  CLST      54              1.0000000000
       271        55  DCM       C              -2.7654253196        0.3777738614        1.2250205919  CLST      55              1.0000000000
       272        55  DCM       H1             -2.9142870951        0.6680642705        2.2868873984  CLST      55              1.0000000000
       273        55  DCM       H2             -2.7883144404       -0.7262440389        1.1069640551  CLST      55              1.0000000000
       274        55  DCM       CL1            -4.0707157712        1.0970827218        0.2387643090  CLST      55              1.0000000000
       275        55  DCM       CL2            -1.1796653825        0.9890621205        0.6694669793  CLST      55              1.0000000000
       276        56  DCM       C               2.4277145362        0.9672428453        0.4012173789  CLST      56              1.0000000000
       277        56  DCM       H1              2.6311516582        1.8616688874        1.0273003798  CLST      56              1.0000000000
       278        56  DCM       H2              2.6690018703        0.0335919419        0.9527902477  CLST      56              1.0000000000
       279        56  DCM       CL1             0.6989683598        0.9512218689       -0.0549584734  CLST      56              1.0000000000
       280        56  DCM       CL2             3.4336601381        1.0459863969       -1.0726616654  CLST      56              1.0000000000
       281        57  DCM       C              -0.4585915769       -1.8807569771       -0.3175867518  CLST      57              1.0000000000
       282        57  DCM       H1             -0.1990103875       -1.4168876892       -1.2917063331  CLST      57              1.0000000000
       283        57  DCM       H2             -0.5866137244       -2.9777246341       -0.4243316334  CLST      57              1.0000000000
       284        57  DCM       CL1             0.8512852971       -1.5487755353        0.8547237799  CLST      57              1.0000000000
       285        57  DCM       CL2            -1.9907939601       -1.1702764421        0.2663232477  CLST      57              1.0000000000
       286        58  DCM       C               2.4002849072        3.7778442385        0.4328675028  CLST      58              1.0000000000
       287        58  DCM       H1              3.1131560002        3.2622390155       -0.2446553213  CLST      58              1.0000000000
       288        58  DCM       H2              1.9593459275        4.6716919311       -0.0564092065  CLST      58              1.0000000000
       289        58  DCM       CL1             1.0881445835        2.6448361237        0.8690866061  CLST      58              1.0000000000
       290        58  DCM       CL2             3.2705565857        4.2949988731        1.9065732932  CLST      58              1.0000000000
       291        59  DCM       C               1.5445690618        2.7776786624       -1.8290755274  CLST      59              1.0000000000
       292        59  DCM       H1              0.4398123365        2.8859826658       -1.7966261827  CLST      59              1.0000000000
       293        59  DCM       H2              2.0433801467        3.6490791643       -1.3552924094  CLST      59              1.0000000000
       294        59  DCM       CL1             2.0114850796        1.2900906792       -0.9539792351  CLST      59              1.0000000000
       295        59  DCM       CL2             2.0689021521        2.6666647985       -3.5340395482  CLST      59              1.0000000000
       296        60  DCM       C               2.5062855111       -1.1780061744       -3.1668362235  CLST      60              1.0000000000
       297        60  DCM       H1              1.4471477015       -1.0478462395       -2.8617285328  CLST      60              1.0000000000
       298        60  DCM       H2              2.6368330227       -0.9762055141       -4.2503684094  CLST      60              1.0000000000
       299        60  DCM       CL1             3.5199605292       -0.0349568453       -2.2409337919  CLST      60              1.0000000000
       300        60  DCM       CL2             3.0049206183       -2.8588432499       -2.8219578933  CLST      60              1.0000000000
       301        61  DCM       C              -0.3200671879        1.3332963639        3.6584503536  CLST      61              1.0000000000
       302        61  DCM       H1              0.7309999237        1.0690700850        3.9013743373  CLST      61              1.0000000000
       303        61  DCM       H2             -1.0259729769        0.8327512170        4.3542351223  CLST      61              1.0000000000
       304        61  DCM       CL1            -0.5160528045        3.1016359514        3.7973285429  CLST      61              1.0000000000
       305        61  DCM       CL2            -0.6903172178        0.8138329728        1.9909748812  CLST      61              1.0000000000
       306        62  DCM       C              -1.9536068143       -0.7586303923        2.2680625121  CLST      62              1.0000000000
       307        62  DCM       H1             -2.5652335919       -0.7142719666        1.3433634528  CLST      62              1.0000000000
       308        62  DCM       H2             -2.4117067473       -0.1565108346        3.0809290801  CLST      62              1.0000000000
       309        62  DCM       CL1            -1.8248491072       -2.4587598430        2.8025028113  CLST      62              1.0000000000
       310        62  DCM       CL2            -0.3264222528       -0.1141394913        1.9162766755  CLST      62              1.0000000000
       311        63  DCM       C               0.3077429500       -3.2700838047        1.2889745486  CLST      63              1.0000000000
       312        63  DCM       H1              0.0651761470       -2.5925099777        0.4430043996  CLST      63              1.0000000000
       313        63  DCM       H2              1.3361714075       -3.6762766224        1.1950605858  CLST      63              1.0000000000
       314        63  DCM       CL1            -0.8504032190       -4.6290292440        1.3000332008  CLST      63              1.0000000000
       315        63  DCM       CL2             0.1830300692       -2.3564711436        2.8166198524  CLST      63              1.0000000000
       316        64  DCM       C              -0.4519472356       -0.7326906175        1.1045972072  CLST      64              1.0000000000
       317        64  DCM       H1             -0.1490372284       -0.4520344737        0.0730518842  CLST      64              1.0000000000
       318        64  DCM       H2             -0.9090036676        0.1314196737        1.6311418034  CLST      64              1.0000000000
       319        64  DCM       CL1            -1.6441778437       -2.0608127391        1.0175737683  CLST      64              1.0000000000
       320        64  DCM       CL2             0.9950751398       -1.2730653194        2.0039873817  CLST      64              1.0000000000
       321        65  DCM       C              -0.0727820525       -2.3952577741       -1.8626806196  CLST      65              1.0000000000
       322        65  DCM       H1             -0.5311792006       -1.3975464943       -1.7077298693  CLST      65              1.0000000000
       323        65  DCM       H2             -0.5752878701       -3.1673916765       -1.2415868228  CLST      65              1.0000000000
       324        65  DCM       CL1            -0.2294120737       -2.8356532075       -3.5887731071  CLST      65              1.0000000000
       325        65  DCM       CL2             1.6544013144       -2.3230655551       -1.4083412328  CLST      65              1.0000000000
       326        66  DCM       C               1.6446161980        2.1146472702        1.7906283153  CLST      66              1.0000000000
       327        66  DCM       H1              1.2193148590        1.2250821572        2.3030950753  CLST      66              1.0000000000
       328        66  DCM       H2              2.5910188230        2.4365585259        2.2717165173  CLST      66              1.0000000000
       329        66  DCM       CL1             1.9702928749        1.7036982422        0.0867577549  CLST      66              1.0000000000
       330        66  DCM       CL2             0.4678380560        3.4545500516        1.8603901025  CLST      66              1.0000000000
       331        67  DCM       C               2.4265170758       -0.9974087320       -1.4573258208  CLST      67              1.0000000000
       332        67  DCM       H1              1.7766117837       -1.5040302925       -2.2000746524  CLST      67              1.0000000000
       333        67  DCM       H2              2.7836313740       -0.0208866000       -1.8457703162  CLST      67              1.0000000000
       334        67  DCM       CL1             1.5032284782       -0.7279741753        0.0458994430  CLST      67              1.0000000000
       335        67  DCM       CL2             3.8330423722       -2.0380367736       -1.1122241173  CLST      67              1.0000000000
       336        68  DCM       C               3.2216123786        1.8919096829       -1.6967669397  CLST      68              1.0000000000
       337        68  DCM       H1              3.4920350556        2.0783071809       -2.7573629189  CLST      68              1.0000000000
       338        68  DCM       H2              2.5268466316        2.6703014047       -1.3187808361  CLST      68              1.0000000000
       339        68  DCM       CL1             2.4305669934        0.2937363001       -1.5719894455  CLST      68              1.0000000000
       340        68  DCM       CL2             4.7068398302        1.9109498731       -0.7050046081  CLST      68              1.0000000000
       341        69  DCM       C              -2.8273457303        0.3786692030       -0.5858590124  CLST      69              1.0000000000
       342        69  DCM       H1             -3.7630024085        0.7950371649       -0.1565386629  CLST      69              1.0000000000
       343        69  DCM       H2             -2.7678409301        0.5644430769       -1.6770858091  CLST      69              1.0000000000
       344        69  DCM       CL1            -1.4291741286        1.1505567039        0.2095940267  CLST      69              1.0000000000
       345        69  DCM       CL2            -2.7826651253       -1.3810384181       -0.3005226845  CLST      69              1.0000000000
       346        70  DCM       C               1.6845532463        0.6274569338        2.9995910309  CLST      70              1.0000000000
       347        70  DCM       H1              1.3849583011       -0.4407356861        3.0049740669  CLST      70              1.0000000000
       348        70  DCM       H2              1.6398036557        1.0551596938        4.0215464304  CLST      70              1.0000000000
       349        70  DCM       CL1             3.3628906985        0.7537685343        2.4030077172  CLST      70              1.0000000000
       350        70  DCM       CL2             0.5728994414        1.5391500268        1.9345213902  CLST      70              1.0000000000
       351        71  DCM       C              -1.0976754291       -2.7480301216        2.8182739592  CLST      71              1.0000000000
       352        71  DCM       H1             -0.7084677265       -3.7174710019        2.4456091867  CLST      71              1.0000000000
       353        71  DCM       H2             -0.7064419654       -2.5216895709        3.8328399324  CLST      71              1.0000000000
       354        71  DCM       CL1            -0.5917826716       -1.4539525927        1.6965380768  CLST      71              1.0000000000
       355        71  DCM       CL2            -2.8825859795       -2.8227822589        2.8863569898  CLST      71              1.0000000000
       356        72  DCM       C               2.6839216150        1.8776292058       -2.8639650775  CLST      72              1.0000000000
       357        72  DCM       H1              3.3482795455        1.0083218514       -3.0523181298  CLST      72              1.0000000000
       358        72  DCM       H2              1.6149440714        1.5807418825       -2.9147939169  CLST      72              1.0000000000
       359        72  DCM       CL1             3.0329466361        2.5402395704       -1.2434120780  CLST      72              1.0000000000
       360        72  DCM       CL2             2.9976534132        3.1264853531       -4.1012600749  CLST      72              1.0000000000
       361        73  DCM       C              -0.3315592591        3.0738868262       -0.4675201830  CLST      73              1.0000000000
       362        73  DCM       H1             -0.1104607926        3.9661070965       -1.0912545484  CLST      73              1.0000000000
       363        73  DCM       H2             -1.4154454171        3.0041951235       -0.2372799886  CLST      73              1.0000000000
       364        73  DCM       CL1             0.1673409477        1.6058059864       -1.3564115381  CLST      73              1.0000000000
       365        73  DCM       CL2             0.5811435429        3.1948229039        1.0651884476  CLST      73              1.0000000000
       366        74  DCM       C              -1.0083558028       -0.5009994818        1.0266680001  CLST      74              1.0000000000
       367        74  DCM       H1             -1.0731636799        0.5621446575        0.7131491950  CLST      74              1.0000000000
       368        74  DCM       H2             -0.1387905445       -1.0049340083        0.5541629952  CLST      74              1.0000000000
       369        74  DCM       CL1            -0.8259169851       -0.5755978721        2.8014211091  CLST      74              1.0000000000
       370        74  DCM       CL2            -2.5077420838       -1.3396901785        0.5381076955  CLST      74              1.0000000000
       371        75  DCM       C              -2.7474520452        0.2967489050        2.6154947137  CLST      75              1.0000000000
       372        75  DCM       H1             -2.9708577094       -0.5146521938        1.8922265319  CLST      75              1.0000000000
       373        75  DCM       H2             -1.7250544025        0.1839911372        3.0350371220  CLST      75              1.0000000000
       374        75  DCM       CL1            -2.8721394774        1.8717924557        1.7817009158  CLST      75              1.0000000000
       375        75  DCM       CL2            -3.9322897961        0.2358055044        3.9505681135  CLST      75              1.0000000000
       376        76  DCM       C              -2.9152927041       -0.4135119262       -0.0950282251  CLST      76              1.0000000000
       377        76  DCM       H1             -3.7054867321       -0.5070881397       -0.8704568394  CLST      76              1.0000000000
       378        76  DCM       H2             -2.0330188600        0.1339956866       -0.4885678515  CLST      76              1.0000000000
       379        76  DCM       CL1            -3.5765585624        0.4806096673        1.3016834074  CLST      76              1.0000000000
       380        76  DCM       CL2            -2.4052980347       -2.0460236246        0.4257252477  CLST      76              1.0000000000
       381        77  DCM       C               2.8694063058       -2.3287838636        0.6223420124  CLST      77              1.0000000000
       382        77  DCM       H1              2.8019401369       -3.0385367917        1.4727990198  CLST      77              1.0000000000
       383        77  DCM       H2              3.4133783349       -1.4063645041        0.9144106720  CLST      77              1.0000000000
       384        77  DCM       CL1             3.7417383269       -3.1219212089       -0.7199360980  CLST      77              1.0000000000
       385        77  DCM       CL2             1.2177437773       -1.8907112324        0.1016152848  CLST      77              1.0000000000
       386        78  DCM       C              -2.7391714464        1.7739914126       -2.1689199936  CLST      78              1.0000000000
       387        78  DCM       H1             -1.7730814531        2.0520099726       -2.6386291959  CLST      78              1.0000000000
       388        78  DCM       H2             -3.3087046276        1.0762306081       -2.8190888479  CLST      78              1.0000000000
       389        78  DCM       CL1            -3.7095544264        3.2517482951       -1.9092504924  CLST      78              1.0000000000
       390        78  DCM       CL2            -2.4250506836        0.9778233404       -0.6001760616  CLST      78              1.0000000000
       391        79  DCM       C              -1.7688399413       -2.1563663519        0.5023898153  CLST      79              1.0000000000
       392        79  DCM       H1             -2.8537521687       -2.2163474482        0.2701563717  CLST      79              1.0000000000
       393        79  DCM       H2             -1.2732626083       -3.1380316559        0.3550885769  CLST      79              1.0000000000
       394        79  DCM       CL1            -1.0099067289       -0.9547209771       -0.5821620493  CLST      79              1.0000000000
       395        79  DCM       CL2            -1.5643883740       -1.6542188336        2.2063135008  CLST      79              1.0000000000
       396        80  DCM       C               0.3257756986       -0.8200005373        0.1361427924  CLST      80              1.0000000000
       397        80  DCM       H1             -0.4245826055       -0.3329623159       -0.5213636660  CLST      80              1.0000000000
       398        80  DCM       H2             -0.1195673038       -1.1020772272        1.1131159168  CLST      80              1.0000000000
       399        80  DCM       CL1             0.9272753026       -2.2962204546       -0.6684630216  CLST      80              1.0000000000
       400        80  DCM       CL2             1.6731992547        0.3188460373        0.4200987625  CLST      80              1.0000000000
       401        81  DCM       C               0.4217692276       -1.3106001538        2.4058846977  CLST      81              1.0000000000
       402        81  DCM       H1              1.0063094715       -2.0421251514        3.0013691233  CLST      81              1.0000000000
       403        81  DCM       H2              0.6507821354       -1.4020274764        1.3233279970  CLST      81              1.0000000000
       404        81  DCM       CL1            -1.3186635801       -1.6214985885        2.6653112067  CLST      81              1.0000000000
       405        81  DCM       CL2             0.8338759633        0.3400304815        2.9537891026  CLST      81              1.0000000000
       406        82  DCM       C              -0.8350020693        2.3614072423        2.3094235689  CLST      82              1.0000000000
       407        82  DCM       H1             -0.8394026552        3.2403469658        2.9872272537  CLST      82              1.0000000000
       408        82  DCM       H2             -1.1312734905        2.6527637753        1.2801635444  CLST      82              1.0000000000
       409        82  DCM       CL1             0.8094305376        1.6684822703        2.2620500179  CLST      82              1.0000000000
       410        82  DCM       CL2            -1.9831046098        1.1410558367        2.9287666689  CLST      82              1.0000000000
       411        83  DCM       C               0.8293814500       -3.8005175965        0.8643456051  CLST      83              1.0000000000
       412        83  DCM       H1              0.2642838778       -4.0337168448       -0.0614300777  CLST      83              1.0000000000
       413        83  DCM       H2              1.9233048133       -3.9024018922        0.7030976679  CLST      83              1.0000000000
       414        83  DCM       CL1             0.4711852436       -2.1195457913        1.3492708422  CLST      83              1.0000000000
       415        83  DCM       CL2             0.3201804099       -4.9273985203        2.1549684816  CLST      83              1.0000000000
       416        84  DCM       C              -0.3396284247        2.8737073649        0.7352766421  CLST      84              1.0000000000
       417        84  DCM       H1              0.2799035920        3.7706292004        0.5356761100  CLST      84              1.0000000000
       418        84  DCM       H2             -1.3629280958        3.0108513660        0.3308257636  CLST      84              1.0000000000
       419        84  DCM       CL1             0.4160673338        1.4570644285       -0.0472499087  CLST      84              1.0000000000
       420        84  DCM       CL2            -0.4397377777        2.6089635290        2.4990993066  CLST      84              1.0000000000
       421        85  DCM       C               0.3777531745       -0.1204537247        3.6578744931  CLST      85              1.0000000000
       422        85  DCM       H1              0.6274426192       -0.7105700403        4.5633338850  CLST      85              1.0000000000
       423        85  DCM       H2             -0.5071304042       -0.5451880102        3.1400836482  CLST      85              1.0000000000
       424        85  DCM       CL1             0.0098200888        1.5590853400        4.1416853306  CLST      85              1.0000000000
       425        85  DCM       CL2             1.7778563040       -0.1456360771        2.5472902009  CLST      85              1.0000000000
       426        86  DCM       C              -0.2025915835        1.6407623693       -1.4593872453  CLST      86              1.0000000000
       427        86  DCM       H1             -0.5610227967        1.2335560819       -0.4906312643  CLST      86              1.0000000000
       428        86  DCM       H2             -0.7375334837        2.5775975298       -1.7136439505  CLST      86              1.0000000000
       429        86  DCM       CL1             1.5439767338        1.9853348008       -1.3485129662  CLST      86              1.0000000000
       430        86  DCM       CL2            -0.4916264299        0.4371834241       -2.7455441415  CLST      86              1.0000000000
       431        87  DCM       C              -1.9086364506        2.5587316749       -1.8336685618  CLST      87              1.0000000000
       432        87  DCM       H1             -1.8431900082        3.6645884030       -1.8905895529  CLST      87              1.0000000000
       433        87  DCM       H2             -1.5283725457        2.1850490395       -0.8602728348  CLST      87              1.0000000000
       434        87  DCM       CL1            -3.6124571342        2.0655122897       -2.0207974909  CLST      87              1.0000000000
       435        87  DCM       CL2            -0.9378236563        1.8566483844       -3.1521155392  CLST      87              1.0000000000
       436        88  DCM       C              -2.0560286844       -2.5604219592        3.0132466030  CLST      88              1.0000000000
       437        88  DCM       H1             -1.7361127038       -2.5321404876        4.0746870850  CLST      88              1.0000000000
       438        88  DCM       H2             -2.0324039995       -3.5995544494        2.6212873307  CLST      88              1.0000000000
       439        88  DCM       CL1            -3.7189014598       -1.9205391248        2.8969266882  CLST      88              1.0000000000
       440        88  DCM       CL2            -0.9452320432       -1.5476355954        2.0525456255  CLST      88              1.0000000000
       441        89  DCM       C              -3.3602927593       -1.0551254261       -0.0707307796  CLST      89              1.0000000000
       442        89  DCM       H1             -2.8634512410       -1.3687074564        0.8711342259  CLST      89              1.0000000000
       443        89  DCM       H2             -4.1049339101       -1.8085932957       -0.3984472113  CLST      89              1.0000000000
       444        89  DCM       CL1            -4.1924020159        0.5031706387        0.1936144903  CLST      89              1.0000000000
       445        89  DCM       CL2            -2.1248132084       -0.8725377115       -1.3470955809  CLST      89              1.0000000000
       446        90  DCM       C               0.1601641806        2.1136561291       -2.6143286580  CLST      90              1.0000000000
       447        90  DCM       H1             -0.8746055115        1.7500824247       -2.4404121858  CLST      90              1.0000000000
       448        90  DCM       H2              0.1657062475        2.9921839823       -3.2945719669  CLST      90              1.0000000000
       449        90  DCM       CL1             0.8816492271        2.5860416147       -1.0487805896  CLST      90              1.0000000000
       450        90  DCM       CL2             1.1221230476        0.7990638253       -3.3512738676  CLST      90              1.0000000000
       451        91  DCM       C              -2.8328032144        2.5199046140       -0.9512916933  CLST      91              1.0000000000
       452        91  DCM       H1             -3.0772868063        1.9646152972       -0.0207123030  CLST      91              1.0000000000
       453        91  DCM       H2             -3.2406470766        3.5524929857       -0.9145686640  CLST      91              1.0000000000
       454        91  DCM       CL1            -3.5424202243        1.6613731071       -2.3495788243  CLST      91              1.0000000000
       455        91  DCM       CL2            -1.0564321292        2.5974252963       -1.1352083390  CLST      91              1.0000000000
       456        92  DCM       C               1.3881925835        0.3927694384        1.7164498574  CLST      92              1.0000000000
       457        92  DCM       H1              1.1462073068        0.8880296824        0.7523518471  CLST      92              1.0000000000
       458        92  DCM       H2              0.5152047526       -0.1718146892        2.1059697137  CLST      92              1.0000000000
       459        92  DCM       CL1             2.7437124431       -0.7445052160        1.4621536315  CLST      92              1.0000000000
       460        92  DCM       CL2             1.8518856013        1.6442698046        2.9055294286  CLST      92              1.0000000000
       461        93  DCM       C               2.2798384103        2.2051511492        2.1067489429  CLST      93              1.0000000000
       462        93  DCM       H1              2.3899063483        3.3052611163        2.2108276879  CLST      93              1.0000000000
       463        93  DCM       H2              3.1314443445        1.7690350849        1.5437015396  CLST      93              1.0000000000
       464        93  DCM       CL1             2.2196682965        1.4718901105        3.7357345925  CLST      93              1.0000000000
       465        93  DCM       CL2             0.7661478448        1.8501810233        1.2280006098  CLST      93              1.0000000000
       466        94  DCM       C               3.3956024868       -1.2148007558       -0.6069660338  CLST      94              1.0000000000
       467        94  DCM       H1              3.3513325980       -1.5305641815       -1.6701281848  CLST      94              1.0000000000
       468        94  DCM       H2              4.1541563429       -0.4171564215       -0.4608678990  CLST      94              1.0000000000
       469        94  DCM       CL1             1.7922702947       -0.5961191184       -0.1116111933  CLST      94              1.0000000000
       470        94  DCM       CL2             3.8343363890       -2.6267267721        0.3961596644  CLST      94              1.0000000000
       471        95  DCM       C               1.0331068926        2.3470112294       -2.5959557163  CLST      95              1.0000000000
       472        95  DCM       H1              1.6520443175        1.5865655189       -2.0745628173  CLST      95              1.0000000000
       473        95  DCM       H2              1.4430536903        3.3682466661       -2.4466370091  CLST      95              1.0000000000
       474        95  DCM       CL1             1.0100863377        1.9805610973       -4.3463739400  CLST      95              1.0000000000
       475        95  DCM       CL2            -0.6274287471        2.2830390503       -1.9391347828  CLST      95              1.0000000000
