* PRE_MLPOT:MONOMER_REPACK
*  DATE:     6/28/26      1:58:44      CREATED BY USER: boittier
*
       475  EXT
         1         1  DCM       C              -1.9714218174       -1.6086823026       -2.2289025592  CLST      1               1.0000000000
         2         1  DCM       H1             -2.9099478272       -1.1901341519       -1.8092720326  CLST      1               1.0000000000
         3         1  DCM       H2             -1.9426746835       -1.4946475711       -3.3331568495  CLST      1               1.0000000000
         4         1  DCM       CL1            -0.5831503967       -0.7380128072       -1.5192961497  CLST      1               1.0000000000
         5         1  DCM       CL2            -1.8682389818       -3.3457496847       -1.8179417492  CLST      1               1.0000000000
         6         2  DCM       C               0.8310710793        1.4946106776        0.6876009175  CLST      2               1.0000000000
         7         2  DCM       H1              1.5562116453        2.2018930986        1.1430898629  CLST      2               1.0000000000
         8         2  DCM       H2              1.2745763517        0.9790766180       -0.1905633873  CLST      2               1.0000000000
         9         2  DCM       CL1            -0.6185060679        2.3974363601        0.1606487844  CLST      2               1.0000000000
        10         2  DCM       CL2             0.3677028282        0.2737532133        1.9064587425  CLST      2               1.0000000000
        11         3  DCM       C               0.3480153408       -0.7576864285        2.5103943485  CLST      3               1.0000000000
        12         3  DCM       H1             -0.0628292403        0.1148997192        1.9599334750  CLST      3               1.0000000000
        13         3  DCM       H2             -0.3000659551       -1.0287706738        3.3694918321  CLST      3               1.0000000000
        14         3  DCM       CL1             0.4460284764       -2.1529088368        1.3994913064  CLST      3               1.0000000000
        15         3  DCM       CL2             1.9775748433       -0.3500224732        3.1195531674  CLST      3               1.0000000000
        16         4  DCM       C               2.9570651205       -3.2772599380       -2.1156375722  CLST      4               1.0000000000
        17         4  DCM       H1              2.4239542922       -3.3354974743       -1.1428632082  CLST      4               1.0000000000
        18         4  DCM       H2              3.9900056696       -3.6745178662       -2.0301442115  CLST      4               1.0000000000
        19         4  DCM       CL1             2.0668340922       -4.2410838218       -3.3277650603  CLST      4               1.0000000000
        20         4  DCM       CL2             3.0441048857       -1.5714966731       -2.6360790277  CLST      4               1.0000000000
        21         5  DCM       C              -2.7752891584        1.4281237918       -2.5365071601  CLST      5               1.0000000000
        22         5  DCM       H1             -2.9260256146        0.9544588325       -3.5294621143  CLST      5               1.0000000000
        23         5  DCM       H2             -2.8998742231        2.5302260052       -2.5989726540  CLST      5               1.0000000000
        24         5  DCM       CL1            -1.1233865437        1.0576756818       -1.9591042359  CLST      5               1.0000000000
        25         5  DCM       CL2            -3.9820855033        0.7683069269       -1.3961027242  CLST      5               1.0000000000
        26         6  DCM       C              -1.7356318167       -1.2910507285       -0.3142929622  CLST      6               1.0000000000
        27         6  DCM       H1             -2.0608749090       -2.0831159471        0.3925871254  CLST      6               1.0000000000
        28         6  DCM       H2             -1.6311425774       -1.6932494292       -1.3440257034  CLST      6               1.0000000000
        29         6  DCM       CL1            -0.1573165637       -0.6481288746        0.2220055182  CLST      6               1.0000000000
        30         6  DCM       CL2            -2.9538575116        0.0167553749       -0.3209021052  CLST      6               1.0000000000
        31         7  DCM       C               2.8234857230        0.3474385108        0.2825017109  CLST      7               1.0000000000
        32         7  DCM       H1              3.8258343426        0.4988086715        0.7345822241  CLST      7               1.0000000000
        33         7  DCM       H2              2.9094141979        0.0322898109       -0.7789761624  CLST      7               1.0000000000
        34         7  DCM       CL1             1.9555918355       -0.9177779497        1.2000518865  CLST      7               1.0000000000
        35         7  DCM       CL2             1.9142840389        1.8839151960        0.3638388722  CLST      7               1.0000000000
        36         8  DCM       C              -2.8173036857        0.2769441282        0.9466129461  CLST      8               1.0000000000
        37         8  DCM       H1             -2.8684568481        1.1643135764        0.2808533972  CLST      8               1.0000000000
        38         8  DCM       H2             -3.3606958046        0.4618860924        1.8970608422  CLST      8               1.0000000000
        39         8  DCM       CL1            -3.5601363074       -1.1160550790        0.1105356499  CLST      8               1.0000000000
        40         8  DCM       CL2            -1.1038444344       -0.0796496087        1.3108399734  CLST      8               1.0000000000
        41         9  DCM       C              -1.5680330857        1.3434594746       -0.2048068227  CLST      9               1.0000000000
        42         9  DCM       H1             -2.0407743379        0.4098773787       -0.5756702813  CLST      9               1.0000000000
        43         9  DCM       H2             -0.9072344511        1.7883080020       -0.9781611215  CLST      9               1.0000000000
        44         9  DCM       CL1            -2.8473988880        2.5159143775        0.2128656109  CLST      9               1.0000000000
        45         9  DCM       CL2            -0.5976054019        0.9688914661        1.2461063537  CLST      9               1.0000000000
        46        10  DCM       C               0.7157241362        0.6995924571       -0.7411796091  CLST      10              1.0000000000
        47        10  DCM       H1             -0.0428294492        0.6752493001       -1.5518207516  CLST      10              1.0000000000
        48        10  DCM       H2              1.3814472174       -0.1878785189       -0.7894389508  CLST      10              1.0000000000
        49        10  DCM       CL1             1.7055616506        2.1775760242       -0.9176790796  CLST      10              1.0000000000
        50        10  DCM       CL2            -0.1246606493        0.7143713119        0.8366285464  CLST      10              1.0000000000
        51        11  DCM       C               1.6602625551        1.3970959561        0.8518655344  CLST      11              1.0000000000
        52        11  DCM       H1              1.0461257736        0.8005313595        1.5577453148  CLST      11              1.0000000000
        53        11  DCM       H2              2.4148582583        2.0051603102        1.3931374862  CLST      11              1.0000000000
        54        11  DCM       CL1             2.4993001339        0.2838339870       -0.2642650943  CLST      11              1.0000000000
        55        11  DCM       CL2             0.5913516909        2.4899159400       -0.0728027783  CLST      11              1.0000000000
        56        12  DCM       C               2.1248391780       -2.2845166950       -2.3943776546  CLST      12              1.0000000000
        57        12  DCM       H1              2.0883906739       -1.1844690313       -2.5403137614  CLST      12              1.0000000000
        58        12  DCM       H2              3.1330055143       -2.6833856883       -2.6313160618  CLST      12              1.0000000000
        59        12  DCM       CL1             1.7379119690       -2.6614765825       -0.6916651650  CLST      12              1.0000000000
        60        12  DCM       CL2             0.9259235819       -3.0571620118       -3.4701407872  CLST      12              1.0000000000
        61        13  DCM       C              -2.0637447462       -1.5058763196        2.0322910140  CLST      13              1.0000000000
        62        13  DCM       H1             -0.9742513926       -1.3340557331        1.9089482948  CLST      13              1.0000000000
        63        13  DCM       H2             -2.4891351906       -0.8274037728        2.8016139432  CLST      13              1.0000000000
        64        13  DCM       CL1            -2.8817692453       -1.2047577585        0.4732704262  CLST      13              1.0000000000
        65        13  DCM       CL2            -2.3378452039       -3.1957861448        2.5403999095  CLST      13              1.0000000000
        66        14  DCM       C              -0.5364892347        0.8437246211       -1.8634083577  CLST      14              1.0000000000
        67        14  DCM       H1              0.1665873389        1.6563255857       -1.5820674687  CLST      14              1.0000000000
        68        14  DCM       H2             -1.5499725165        1.0345442507       -1.4545798250  CLST      14              1.0000000000
        69        14  DCM       CL1            -0.6359807930        0.7431219094       -3.6455659662  CLST      14              1.0000000000
        70        14  DCM       CL2             0.0654738069       -0.7013550697       -1.2003410583  CLST      14              1.0000000000
        71        15  DCM       C              -2.2483941640       -0.9820576132        0.3514354017  CLST      15              1.0000000000
        72        15  DCM       H1             -2.9891999305       -1.6297959172       -0.1632667623  CLST      15              1.0000000000
        73        15  DCM       H2             -1.5575869261       -0.5078764176       -0.3777121783  CLST      15              1.0000000000
        74        15  DCM       CL1            -3.1170872946        0.2975955080        1.2485637684  CLST      15              1.0000000000
        75        15  DCM       CL2            -1.2967992368       -1.9791572940        1.4893828563  CLST      15              1.0000000000
        76        16  DCM       C               1.6425262202       -0.1950208941       -2.5852654170  CLST      16              1.0000000000
        77        16  DCM       H1              1.0200514890        0.2992860036       -1.8098114974  CLST      16              1.0000000000
        78        16  DCM       H2              1.0186146884       -0.8177928490       -3.2594210946  CLST      16              1.0000000000
        79        16  DCM       CL1             2.4717254030        1.0579405250       -3.5532347392  CLST      16              1.0000000000
        80        16  DCM       CL2             2.8470591629       -1.2465918533       -1.7873690499  CLST      16              1.0000000000
        81        17  DCM       C               0.1955964925       -2.9259535541        0.2919041398  CLST      17              1.0000000000
        82        17  DCM       H1              0.0143954791       -2.1300737943       -0.4581855361  CLST      17              1.0000000000
        83        17  DCM       H2             -0.4585268140       -3.8017975923        0.1001149106  CLST      17              1.0000000000
        84        17  DCM       CL1             1.9041631073       -3.4383920881        0.2097811194  CLST      17              1.0000000000
        85        17  DCM       CL2            -0.1524242200       -2.2739229450        1.9162745075  CLST      17              1.0000000000
        86        18  DCM       C               0.0392934240        2.2518642769        0.0110827517  CLST      18              1.0000000000
        87        18  DCM       H1              0.0473318101        3.3220360429       -0.2851217840  CLST      18              1.0000000000
        88        18  DCM       H2             -0.9721946573        1.9380946583        0.3450553199  CLST      18              1.0000000000
        89        18  DCM       CL1             1.1979611247        2.0115016742        1.3513356756  CLST      18              1.0000000000
        90        18  DCM       CL2             0.5218002246        1.2554525178       -1.3926127081  CLST      18              1.0000000000
        91        19  DCM       C              -1.9646188256       -0.5538204278        2.2247069430  CLST      19              1.0000000000
        92        19  DCM       H1             -1.1804463317       -0.8953290678        1.5163086488  CLST      19              1.0000000000
        93        19  DCM       H2             -2.7997501253       -0.0580043898        1.6862551678  CLST      19              1.0000000000
        94        19  DCM       CL1            -2.6026837192       -1.9629725618        3.1188265669  CLST      19              1.0000000000
        95        19  DCM       CL2            -1.2432279465        0.6125815450        3.3686284870  CLST      19              1.0000000000
        96        20  DCM       C              -2.7071640776       -2.5024482929       -2.5449178772  CLST      20              1.0000000000
        97        20  DCM       H1             -1.8281063862       -3.1768739811       -2.6234365556  CLST      20              1.0000000000
        98        20  DCM       H2             -3.6041472577       -2.9605159213       -3.0074174310  CLST      20              1.0000000000
        99        20  DCM       CL1            -3.0391469175       -2.1774521061       -0.8182066253  CLST      20              1.0000000000
       100        20  DCM       CL2            -2.3420560688       -0.9706332259       -3.3894585811  CLST      20              1.0000000000
       101        21  DCM       C              -0.2630011728        1.5763594197       -3.1047583867  CLST      21              1.0000000000
       102        21  DCM       H1              0.2193626309        2.5747206147       -3.0423629467  CLST      21              1.0000000000
       103        21  DCM       H2             -1.3697328965        1.6670081773       -3.0941276413  CLST      21              1.0000000000
       104        21  DCM       CL1             0.2407017206        0.7817831281       -4.6240312324  CLST      21              1.0000000000
       105        21  DCM       CL2             0.2506331856        0.5892631051       -1.7058606372  CLST      21              1.0000000000
       106        22  DCM       C              -2.9444912945       -1.6606481211       -1.3276046128  CLST      22              1.0000000000
       107        22  DCM       H1             -2.5622583587       -0.6470648954       -1.0864473251  CLST      22              1.0000000000
       108        22  DCM       H2             -4.0274985932       -1.6307781777       -1.5659717251  CLST      22              1.0000000000
       109        22  DCM       CL1            -2.0486571725       -2.3010974349       -2.7341833403  CLST      22              1.0000000000
       110        22  DCM       CL2            -2.6867818610       -2.7303545742        0.0778764871  CLST      22              1.0000000000
       111        23  DCM       C              -0.0713700967       -2.7091102941        1.2353024792  CLST      23              1.0000000000
       112        23  DCM       H1              0.4004866484       -3.6738732149        0.9543870780  CLST      23              1.0000000000
       113        23  DCM       H2             -0.2385561345       -2.6519349974        2.3333423463  CLST      23              1.0000000000
       114        23  DCM       CL1             0.9987387754       -1.3651700745        0.7459974598  CLST      23              1.0000000000
       115        23  DCM       CL2            -1.6453973282       -2.5639450088        0.4046735789  CLST      23              1.0000000000
       116        24  DCM       C              -0.2524434573       -0.2202439071       -0.0902343682  CLST      24              1.0000000000
       117        24  DCM       H1             -0.1795001902        0.7512608840        0.4398494123  CLST      24              1.0000000000
       118        24  DCM       H2              0.5934665066       -0.3549988369       -0.7947510035  CLST      24              1.0000000000
       119        24  DCM       CL1            -0.2155771611       -1.5368154506        1.1126298719  CLST      24              1.0000000000
       120        24  DCM       CL2            -1.7874488068       -0.2774821050       -1.0028846519  CLST      24              1.0000000000
       121        25  DCM       C               0.0663580877        3.6257980305       -0.8114504434  CLST      25              1.0000000000
       122        25  DCM       H1             -0.0399214607        4.5110720039       -1.4719046430  CLST      25              1.0000000000
       123        25  DCM       H2             -0.8783268901        3.0435790799       -0.7705422178  CLST      25              1.0000000000
       124        25  DCM       CL1             1.3670528869        2.5814869323       -1.4487845237  CLST      25              1.0000000000
       125        25  DCM       CL2             0.4831877487        4.1805106466        0.8346758932  CLST      25              1.0000000000
       126        26  DCM       C               1.3496845435       -1.7414458702        1.7850503011  CLST      26              1.0000000000
       127        26  DCM       H1              0.5375707013       -1.1608786157        2.2709164987  CLST      26              1.0000000000
       128        26  DCM       H2              1.5781680156       -2.6627204444        2.3584937017  CLST      26              1.0000000000
       129        26  DCM       CL1             2.8212798748       -0.7311408217        1.6976339986  CLST      26              1.0000000000
       130        26  DCM       CL2             0.8397338582       -2.2080465164        0.1385561775  CLST      26              1.0000000000
       131        27  DCM       C               1.0408015309        3.3575993785       -2.5793787426  CLST      27              1.0000000000
       132        27  DCM       H1              0.0504313389        2.8755764716       -2.7174151539  CLST      27              1.0000000000
       133        27  DCM       H2              1.0267521372        4.0606309029       -1.7199446021  CLST      27              1.0000000000
       134        27  DCM       CL1             2.2614884136        2.0883205756       -2.2750893684  CLST      27              1.0000000000
       135        27  DCM       CL2             1.4614279300        4.2630185655       -4.0624014859  CLST      27              1.0000000000
       136        28  DCM       C              -1.2271507982        2.6301132360        2.6409187210  CLST      28              1.0000000000
       137        28  DCM       H1             -2.0203804486        3.3244698147        2.9895056191  CLST      28              1.0000000000
       138        28  DCM       H2             -0.7662583244        2.9912273321        1.6975266865  CLST      28              1.0000000000
       139        28  DCM       CL1             0.0365229490        2.5148667231        3.8978797600  CLST      28              1.0000000000
       140        28  DCM       CL2            -1.9463478766        1.0177395315        2.3610249158  CLST      28              1.0000000000
       141        29  DCM       C              -0.9736629997        1.4761831647        1.7730262761  CLST      29              1.0000000000
       142        29  DCM       H1             -1.9139070430        1.5446010867        2.3562430778  CLST      29              1.0000000000
       143        29  DCM       H2             -1.1694098930        1.0663189887        0.7617853297  CLST      29              1.0000000000
       144        29  DCM       CL1            -0.2684279578        3.1064328785        1.6016355259  CLST      29              1.0000000000
       145        29  DCM       CL2             0.1732670036        0.4088382654        2.6351960809  CLST      29              1.0000000000
       146        30  DCM       C              -0.2317340866       -3.5309278702       -1.3435048808  CLST      30              1.0000000000
       147        30  DCM       H1             -0.8179306073       -3.6216676203       -0.4055697014  CLST      30              1.0000000000
       148        30  DCM       H2             -0.3684468620       -4.4244785506       -1.9859398325  CLST      30              1.0000000000
       149        30  DCM       CL1            -0.7852274874       -2.0848814172       -2.2353031416  CLST      30              1.0000000000
       150        30  DCM       CL2             1.4994099603       -3.3722463517       -0.9356393387  CLST      30              1.0000000000
       151        31  DCM       C              -2.4478613130        2.3964359414        1.0088368692  CLST      31              1.0000000000
       152        31  DCM       H1             -1.9839359501        3.2559738828        0.4801248145  CLST      31              1.0000000000
       153        31  DCM       H2             -3.5449746801        2.5337594433        1.1119280427  CLST      31              1.0000000000
       154        31  DCM       CL1            -2.1367171559        0.9008570019        0.0799934789  CLST      31              1.0000000000
       155        31  DCM       CL2            -1.7259594755        2.2585989737        2.6374205505  CLST      31              1.0000000000
       156        32  DCM       C               0.2412195318       -1.5000644368        2.4030231587  CLST      32              1.0000000000
       157        32  DCM       H1              1.2063928177       -1.3778740397        1.8687409334  CLST      32              1.0000000000
       158        32  DCM       H2             -0.5999831412       -1.6141873314        1.6853057984  CLST      32              1.0000000000
       159        32  DCM       CL1             0.3265609194       -2.9577430142        3.4340375305  CLST      32              1.0000000000
       160        32  DCM       CL2            -0.0513791110       -0.0557101195        3.4153339886  CLST      32              1.0000000000
       161        33  DCM       C               2.0642060092        2.3525109454       -0.3319365100  CLST      33              1.0000000000
       162        33  DCM       H1              1.5201617836        3.2552628614        0.0142027102  CLST      33              1.0000000000
       163        33  DCM       H2              2.3388981114        1.7018347865        0.5235715526  CLST      33              1.0000000000
       164        33  DCM       CL1             1.0108841625        1.4384438511       -1.4479300504  CLST      33              1.0000000000
       165        33  DCM       CL2             3.5573821866        2.8513347086       -1.1762473939  CLST      33              1.0000000000
       166        34  DCM       C               1.3639112062        0.6112463364       -2.9027137090  CLST      34              1.0000000000
       167        34  DCM       H1              2.2937209607        0.4672268114       -3.4932020325  CLST      34              1.0000000000
       168        34  DCM       H2              1.4362333751        0.1108501918       -1.9139656436  CLST      34              1.0000000000
       169        34  DCM       CL1             1.0962980944        2.3608030054       -2.6510788671  CLST      34              1.0000000000
       170        34  DCM       CL2            -0.0100055020       -0.0861054431       -3.8067393591  CLST      34              1.0000000000
       171        35  DCM       C               0.5153841872        2.0943350663       -1.9341650562  CLST      35              1.0000000000
       172        35  DCM       H1              0.9404306404        2.6576040827       -1.0767564023  CLST      35              1.0000000000
       173        35  DCM       H2             -0.1961631242        1.3154422652       -1.5879458303  CLST      35              1.0000000000
       174        35  DCM       CL1            -0.3463583951        3.2343395797       -3.0077588605  CLST      35              1.0000000000
       175        35  DCM       CL2             1.8461151748        1.3054054729       -2.8297269502  CLST      35              1.0000000000
       176        36  DCM       C               2.6898232350       -1.3547302203        3.0139335778  CLST      36              1.0000000000
       177        36  DCM       H1              2.8091134704       -2.0741129361        3.8519500068  CLST      36              1.0000000000
       178        36  DCM       H2              3.6365532518       -0.8073202868        2.8204596789  CLST      36              1.0000000000
       179        36  DCM       CL1             2.2262742041       -2.2534245105        1.5398263521  CLST      36              1.0000000000
       180        36  DCM       CL2             1.4078226041       -0.1826720733        3.4342429659  CLST      36              1.0000000000
       181        37  DCM       C               1.3053842827        0.5537411119        3.0537853001  CLST      37              1.0000000000
       182        37  DCM       H1              2.3663308349        0.7344686437        2.7837737809  CLST      37              1.0000000000
       183        37  DCM       H2              1.2258784127        0.0985935714        4.0625359875  CLST      37              1.0000000000
       184        37  DCM       CL1             0.4308765153        2.1115573706        3.0467242631  CLST      37              1.0000000000
       185        37  DCM       CL2             0.5764688051       -0.5546025774        1.8555020784  CLST      37              1.0000000000
       186        38  DCM       C              -1.4719673425       -0.0177359311        1.7593478931  CLST      38              1.0000000000
       187        38  DCM       H1             -2.4684620328       -0.4891595280        1.6218190226  CLST      38              1.0000000000
       188        38  DCM       H2             -1.1445214091        0.4975214399        0.8322190961  CLST      38              1.0000000000
       189        38  DCM       CL1            -1.5679217988        1.1759114497        3.0860747668  CLST      38              1.0000000000
       190        38  DCM       CL2            -0.2828811676       -1.2876051011        2.1696060602  CLST      38              1.0000000000
       191        39  DCM       C              -0.5171513030       -2.3519063052        1.5425539782  CLST      39              1.0000000000
       192        39  DCM       H1             -0.5327373389       -3.3894175218        1.1471190995  CLST      39              1.0000000000
       193        39  DCM       H2              0.5219748555       -2.0146548286        1.7399476021  CLST      39              1.0000000000
       194        39  DCM       CL1            -1.2595065463       -1.2587089288        0.3388614652  CLST      39              1.0000000000
       195        39  DCM       CL2            -1.4434174907       -2.2937488418        3.0697409256  CLST      39              1.0000000000
       196        40  DCM       C               3.0836748319       -0.0933085943        0.0108711313  CLST      40              1.0000000000
       197        40  DCM       H1              3.7735592115       -0.8015386324       -0.4947121515  CLST      40              1.0000000000
       198        40  DCM       H2              3.5289773083        0.2977117251        0.9501753245  CLST      40              1.0000000000
       199        40  DCM       CL1             1.5608387218       -0.9446612337        0.3989724802  CLST      40              1.0000000000
       200        40  DCM       CL2             2.7501387767        1.2764015421       -1.0881987839  CLST      40              1.0000000000
       201        41  DCM       C              -0.7677026060        2.8228331049        2.8442738281  CLST      41              1.0000000000
       202        41  DCM       H1             -1.1449832421        2.2421994583        3.7099116076  CLST      41              1.0000000000
       203        41  DCM       H2             -0.9492469691        3.9095731202        2.9847120383  CLST      41              1.0000000000
       204        41  DCM       CL1             0.9884750682        2.5372917697        2.6830093355  CLST      41              1.0000000000
       205        41  DCM       CL2            -1.6107449482        2.2704175912        1.3671220833  CLST      41              1.0000000000
       206        42  DCM       C              -0.8472715049       -2.1951430900       -1.8199592355  CLST      42              1.0000000000
       207        42  DCM       H1             -0.3372361250       -1.4295141150       -2.4424674872  CLST      42              1.0000000000
       208        42  DCM       H2             -1.9503504881       -2.1324047318       -1.9359820258  CLST      42              1.0000000000
       209        42  DCM       CL1            -0.2981422215       -3.8199950515       -2.3218392298  CLST      42              1.0000000000
       210        42  DCM       CL2            -0.4322149681       -1.9228827909       -0.1050609601  CLST      42              1.0000000000
       211        43  DCM       C              -1.8624599692        1.2055481237        0.3399980304  CLST      43              1.0000000000
       212        43  DCM       H1             -2.1576561749        2.1071260614       -0.2371362878  CLST      43              1.0000000000
       213        43  DCM       H2             -0.9642261587        0.7251750931       -0.1029117010  CLST      43              1.0000000000
       214        43  DCM       CL1            -1.4996691243        1.6855141609        2.0220653377  CLST      43              1.0000000000
       215        43  DCM       CL2            -3.2152067065        0.0392707381        0.3244768044  CLST      43              1.0000000000
       216        44  DCM       C              -3.3156064349       -0.8604930600        2.0492250229  CLST      44              1.0000000000
       217        44  DCM       H1             -3.4443781168       -0.9633781458        0.9510553785  CLST      44              1.0000000000
       218        44  DCM       H2             -3.5653046173        0.1684650445        2.3833146209  CLST      44              1.0000000000
       219        44  DCM       CL1            -4.3938375601       -2.0208227270        2.8747523707  CLST      44              1.0000000000
       220        44  DCM       CL2            -1.6189069499       -1.2185729378        2.4755827675  CLST      44              1.0000000000
       221        45  DCM       C               1.4221347276       -2.2615752760        2.8669965149  CLST      45              1.0000000000
       222        45  DCM       H1              2.4662916727       -2.5270648722        3.1390938935  CLST      45              1.0000000000
       223        45  DCM       H2              0.7689712648       -2.2411056966        3.7636820272  CLST      45              1.0000000000
       224        45  DCM       CL1             1.4055194838       -0.6469768430        2.1039330632  CLST      45              1.0000000000
       225        45  DCM       CL2             0.7993065110       -3.4825343482        1.7237925992  CLST      45              1.0000000000
       226        46  DCM       C              -2.5454657800        1.5821338837        1.4099231758  CLST      46              1.0000000000
       227        46  DCM       H1             -2.5595623760        1.2942472412        2.4819799653  CLST      46              1.0000000000
       228        46  DCM       H2             -1.9221067526        0.8807258846        0.8168284841  CLST      46              1.0000000000
       229        46  DCM       CL1            -4.2122780475        1.5491085354        0.7705235905  CLST      46              1.0000000000
       230        46  DCM       CL2            -1.8748668576        3.2312517959        1.2640040399  CLST      46              1.0000000000
       231        47  DCM       C              -1.6779317939       -2.7611533329        1.7158874277  CLST      47              1.0000000000
       232        47  DCM       H1             -1.0296137161       -3.2770603565        2.4546144554  CLST      47              1.0000000000
       233        47  DCM       H2             -2.2221588534       -1.9135151510        2.1823571585  CLST      47              1.0000000000
       234        47  DCM       CL1            -2.8647554084       -3.9300783744        1.0729752765  CLST      47              1.0000000000
       235        47  DCM       CL2            -0.6622010475       -2.1399316059        0.3837038628  CLST      47              1.0000000000
       236        48  DCM       C              -2.2863410556       -2.8883580749       -0.9345374853  CLST      48              1.0000000000
       237        48  DCM       H1             -2.3764913481       -3.0306294281        0.1617336956  CLST      48              1.0000000000
       238        48  DCM       H2             -2.6515380780       -3.7828779496       -1.4843684525  CLST      48              1.0000000000
       239        48  DCM       CL1            -3.2579098090       -1.4692411805       -1.4216914219  CLST      48              1.0000000000
       240        48  DCM       CL2            -0.5680240216       -2.6159994043       -1.3405623046  CLST      48              1.0000000000
       241        49  DCM       C              -2.5685194679       -2.2657977636        0.4447576292  CLST      49              1.0000000000
       242        49  DCM       H1             -2.1754138621       -3.2129055618        0.8710988054  CLST      49              1.0000000000
       243        49  DCM       H2             -3.6766142759       -2.2298047383        0.5053302110  CLST      49              1.0000000000
       244        49  DCM       CL1            -2.0780169970       -2.1495305861       -1.2702997032  CLST      49              1.0000000000
       245        49  DCM       CL2            -1.8914118160       -0.8915618303        1.3657419781  CLST      49              1.0000000000
       246        50  DCM       C              -2.1786299176       -1.2778343165        1.2362135196  CLST      50              1.0000000000
       247        50  DCM       H1             -1.3233144220       -1.6633175902        0.6434827463  CLST      50              1.0000000000
       248        50  DCM       H2             -2.1376176522       -0.1713301994        1.3223887822  CLST      50              1.0000000000
       249        50  DCM       CL1            -3.7039189730       -1.7444474774        0.4298458894  CLST      50              1.0000000000
       250        50  DCM       CL2            -2.1181389730       -1.9925282514        2.8723354249  CLST      50              1.0000000000
       251        51  DCM       C               2.1861971556        1.9271952419        0.8043461491  CLST      51              1.0000000000
       252        51  DCM       H1              2.8509289119        1.4810159210        1.5735593995  CLST      51              1.0000000000
       253        51  DCM       H2              1.8280147389        1.1546111023        0.0924773585  CLST      51              1.0000000000
       254        51  DCM       CL1             0.7794233437        2.6684632721        1.6195006057  CLST      51              1.0000000000
       255        51  DCM       CL2             3.0918493956        3.1753407017       -0.0990686360  CLST      51              1.0000000000
       256        52  DCM       C              -2.2633856384       -0.1904445656       -1.8683480555  CLST      52              1.0000000000
       257        52  DCM       H1             -2.0847247599       -0.4789905318       -0.8117205199  CLST      52              1.0000000000
       258        52  DCM       H2             -1.5190477152       -0.6705630959       -2.5377793368  CLST      52              1.0000000000
       259        52  DCM       CL1            -3.9020881197       -0.7183309065       -2.3460362038  CLST      52              1.0000000000
       260        52  DCM       CL2            -2.1295388234        1.5848532720       -2.0189573110  CLST      52              1.0000000000
       261        53  DCM       C              -2.9488873893        2.6111017763        0.5605277390  CLST      53              1.0000000000
       262        53  DCM       H1             -3.8177109249        2.8067459429        1.2220238154  CLST      53              1.0000000000
       263        53  DCM       H2             -2.3493972568        1.7542376538        0.9339876376  CLST      53              1.0000000000
       264        53  DCM       CL1            -1.9190144922        4.0710743126        0.5164954075  CLST      53              1.0000000000
       265        53  DCM       CL2            -3.5471100342        2.2348902722       -1.0800358334  CLST      53              1.0000000000
       266        54  DCM       C              -2.5181760298       -0.0625202561       -2.2676818739  CLST      54              1.0000000000
       267        54  DCM       H1             -1.7557201603        0.5607852179       -1.7588603483  CLST      54              1.0000000000
       268        54  DCM       H2             -3.3006572587       -0.3985457550       -1.5543733262  CLST      54              1.0000000000
       269        54  DCM       CL1            -3.2792901916        0.8959865241       -3.5693733449  CLST      54              1.0000000000
       270        54  DCM       CL2            -1.7125945987       -1.4953330338       -2.9635536691  CLST      54              1.0000000000
       271        55  DCM       C               3.1493965735        0.7297404331       -0.2170905755  CLST      55              1.0000000000
       272        55  DCM       H1              4.0696337616        1.3137646287       -0.0064853791  CLST      55              1.0000000000
       273        55  DCM       H2              3.3738431521       -0.1553065615       -0.8478267741  CLST      55              1.0000000000
       274        55  DCM       CL1             1.9845792489        1.7717339702       -1.0807936547  CLST      55              1.0000000000
       275        55  DCM       CL2             2.4429860693        0.1799567950        1.3297551951  CLST      55              1.0000000000
       276        56  DCM       C              -0.3428015924       -2.1351576196        3.2233886198  CLST      56              1.0000000000
       277        56  DCM       H1             -1.0645740761       -2.6504866887        3.8910000957  CLST      56              1.0000000000
       278        56  DCM       H2              0.4171701273       -1.5818019081        3.8147580003  CLST      56              1.0000000000
       279        56  DCM       CL1            -1.2342257011       -0.9830581601        2.1881277502  CLST      56              1.0000000000
       280        56  DCM       CL2             0.4807870955       -3.3523660555        2.2079615090  CLST      56              1.0000000000
       281        57  DCM       C              -0.6041879198        0.8241241326       -1.0795872878  CLST      57              1.0000000000
       282        57  DCM       H1             -0.0259102867        0.9547501022       -0.1406679029  CLST      57              1.0000000000
       283        57  DCM       H2             -1.2943687885        1.6783138960       -1.2449503018  CLST      57              1.0000000000
       284        57  DCM       CL1             0.5337212267        0.7204190844       -2.4546508050  CLST      57              1.0000000000
       285        57  DCM       CL2            -1.5610515818       -0.6816449163       -0.9689712455  CLST      57              1.0000000000
       286        58  DCM       C               2.8452146195       -0.8226943686        2.1447482215  CLST      58              1.0000000000
       287        58  DCM       H1              2.3695440488       -1.0979742167        1.1823813436  CLST      58              1.0000000000
       288        58  DCM       H2              3.9386920328       -1.0369440467        2.1255533714  CLST      58              1.0000000000
       289        58  DCM       CL1             2.6017312886        0.9197546163        2.4404499464  CLST      58              1.0000000000
       290        58  DCM       CL2             2.0920091213       -1.7646166263        3.4599385067  CLST      58              1.0000000000
       291        59  DCM       C               3.2986938349        1.0795437200       -2.9081886121  CLST      59              1.0000000000
       292        59  DCM       H1              2.9112587766        0.0397876760       -2.9234469512  CLST      59              1.0000000000
       293        59  DCM       H2              4.3817861818        1.0986284767       -2.6628408919  CLST      59              1.0000000000
       294        59  DCM       CL1             2.3996291124        2.0156191478       -1.6802580403  CLST      59              1.0000000000
       295        59  DCM       CL2             3.0559210122        1.8097537809       -4.5188068684  CLST      59              1.0000000000
       296        60  DCM       C              -2.4848426356        0.6941311446       -1.0501470866  CLST      60              1.0000000000
       297        60  DCM       H1             -2.8981845815        0.9930266831       -0.0660062960  CLST      60              1.0000000000
       298        60  DCM       H2             -3.0968484784       -0.1039185038       -1.5182547805  CLST      60              1.0000000000
       299        60  DCM       CL1            -0.8194019726        0.0828921513       -0.8227806306  CLST      60              1.0000000000
       300        60  DCM       CL2            -2.4695987230        2.1158157064       -2.1344850658  CLST      60              1.0000000000
       301        61  DCM       C              -0.0923259055        0.8430003288       -2.1974677639  CLST      61              1.0000000000
       302        61  DCM       H1              0.6443390972        1.6168307556       -2.5007262874  CLST      61              1.0000000000
       303        61  DCM       H2             -0.9252786857        0.7801045378       -2.9288417954  CLST      61              1.0000000000
       304        61  DCM       CL1             0.7263539904       -0.7433034606       -2.1139482220  CLST      61              1.0000000000
       305        61  DCM       CL2            -0.7544515672        1.2651890400       -0.5916784457  CLST      61              1.0000000000
       306        62  DCM       C               1.1521687992       -0.4628810929        1.4867800006  CLST      62              1.0000000000
       307        62  DCM       H1              1.8098248855        0.0062349015        0.7253596558  CLST      62              1.0000000000
       308        62  DCM       H2              0.7683695657       -1.4436562596        1.1344338726  CLST      62              1.0000000000
       309        62  DCM       CL1             2.0884661163       -0.7084294102        2.9889505746  CLST      62              1.0000000000
       310        62  DCM       CL2            -0.2308628938        0.6234376071        1.8036387706  CLST      62              1.0000000000
       311        63  DCM       C               1.6611427203       -1.0291670025       -0.0401011257  CLST      63              1.0000000000
       312        63  DCM       H1              0.6318136913       -1.4429159325       -0.0800362372  CLST      63              1.0000000000
       313        63  DCM       H2              1.6515540814        0.0336686783        0.2792682821  CLST      63              1.0000000000
       314        63  DCM       CL1             2.3955546827       -1.1378276815       -1.6630652089  CLST      63              1.0000000000
       315        63  DCM       CL2             2.6230997158       -1.9752222103        1.1279422534  CLST      63              1.0000000000
       316        64  DCM       C               2.7439007052       -1.8003713011        2.5008179174  CLST      64              1.0000000000
       317        64  DCM       H1              1.8318288130       -1.1814964797        2.3739300416  CLST      64              1.0000000000
       318        64  DCM       H2              3.4406860602       -1.6645409672        1.6467175159  CLST      64              1.0000000000
       319        64  DCM       CL1             3.5676707243       -1.3093591181        4.0063865587  CLST      64              1.0000000000
       320        64  DCM       CL2             2.2734392302       -3.5199740431        2.5992263157  CLST      64              1.0000000000
       321        65  DCM       C               0.4933474301       -2.7127028088       -2.2315691505  CLST      65              1.0000000000
       322        65  DCM       H1              0.3129164023       -1.8233578914       -1.5912408524  CLST      65              1.0000000000
       323        65  DCM       H2             -0.1148624594       -2.6662696487       -3.1594752376  CLST      65              1.0000000000
       324        65  DCM       CL1             2.2238199388       -2.7764391143       -2.6750003941  CLST      65              1.0000000000
       325        65  DCM       CL2             0.0489468608       -4.1834133494       -1.3194891439  CLST      65              1.0000000000
       326        66  DCM       C               2.2505091528       -2.0971739572        0.9956657730  CLST      66              1.0000000000
       327        66  DCM       H1              3.1846106027       -2.6780853530        0.8414754935  CLST      66              1.0000000000
       328        66  DCM       H2              1.3572428132       -2.7465331376        0.8919160744  CLST      66              1.0000000000
       329        66  DCM       CL1             2.1657752879       -0.7913972834       -0.2229185785  CLST      66              1.0000000000
       330        66  DCM       CL2             2.2680714977       -1.3950883023        2.6397277902  CLST      66              1.0000000000
       331        67  DCM       C               1.1171195490        2.8762245334        2.3766383429  CLST      67              1.0000000000
       332        67  DCM       H1              2.1250191970        3.1924849703        2.0329653396  CLST      67              1.0000000000
       333        67  DCM       H2              0.8568108368        3.3549961928        3.3433808881  CLST      67              1.0000000000
       334        67  DCM       CL1            -0.0906730751        3.3538962301        1.1474050885  CLST      67              1.0000000000
       335        67  DCM       CL2             1.0987499079        1.1009909933        2.5839811436  CLST      67              1.0000000000
       336        68  DCM       C               2.2954030185       -1.1057460114       -2.2480641153  CLST      68              1.0000000000
       337        68  DCM       H1              2.1568572979       -0.0191198698       -2.0664744637  CLST      68              1.0000000000
       338        68  DCM       H2              1.3489717523       -1.6572569788       -2.0753284926  CLST      68              1.0000000000
       339        68  DCM       CL1             2.8017778055       -1.3562431923       -3.9417169365  CLST      68              1.0000000000
       340        68  DCM       CL2             3.5486333691       -1.7355217360       -1.1369813414  CLST      68              1.0000000000
       341        69  DCM       C              -1.0117185495        1.8940944630        1.6161395912  CLST      69              1.0000000000
       342        69  DCM       H1             -1.4122769211        2.3565806577        2.5423621521  CLST      69              1.0000000000
       343        69  DCM       H2             -1.6580912322        1.0575205896        1.2763164605  CLST      69              1.0000000000
       344        69  DCM       CL1            -0.9393501468        3.1372174824        0.3341963211  CLST      69              1.0000000000
       345        69  DCM       CL2             0.6292549471        1.2648603299        1.9413530985  CLST      69              1.0000000000
       346        70  DCM       C              -0.5903472436        3.6427643811        1.9511843785  CLST      70              1.0000000000
       347        70  DCM       H1             -0.8902776053        4.7088455260        1.8649563318  CLST      70              1.0000000000
       348        70  DCM       H2              0.5144768576        3.5402910146        1.9997056397  CLST      70              1.0000000000
       349        70  DCM       CL1            -1.3030000420        2.9542113174        3.4391566539  CLST      70              1.0000000000
       350        70  DCM       CL2            -1.1926406091        2.7530835798        0.5230513777  CLST      70              1.0000000000
       351        71  DCM       C              -3.0493408554        2.7277032632        3.1569373383  CLST      71              1.0000000000
       352        71  DCM       H1             -2.4853683134        2.0304500971        2.5029750621  CLST      71              1.0000000000
       353        71  DCM       H2             -4.1025723484        2.8257004390        2.8198548182  CLST      71              1.0000000000
       354        71  DCM       CL1            -3.0270076315        2.0968107684        4.8293309386  CLST      71              1.0000000000
       355        71  DCM       CL2            -2.2683328947        4.3353979870        3.1055042459  CLST      71              1.0000000000
       356        72  DCM       C              -0.3543895093       -3.5808949741        0.5895148775  CLST      72              1.0000000000
       357        72  DCM       H1             -0.9314490514       -3.7996407091        1.5121582938  CLST      72              1.0000000000
       358        72  DCM       H2              0.2651595603       -4.4528270383        0.2913289975  CLST      72              1.0000000000
       359        72  DCM       CL1            -1.4949388066       -3.1930862026       -0.7318155874  CLST      72              1.0000000000
       360        72  DCM       CL2             0.7168277960       -2.1821822238        0.8936936912  CLST      72              1.0000000000
       361        73  DCM       C               2.9822359193        2.5197429974       -2.8377101474  CLST      73              1.0000000000
       362        73  DCM       H1              3.4411873120        1.6082706498       -3.2761642798  CLST      73              1.0000000000
       363        73  DCM       H2              2.9796879705        3.3557167906       -3.5689125357  CLST      73              1.0000000000
       364        73  DCM       CL1             1.2975253091        2.1535054500       -2.3652802276  CLST      73              1.0000000000
       365        73  DCM       CL2             3.9218728759        3.0096915266       -1.3984996593  CLST      73              1.0000000000
       366        74  DCM       C              -0.7758062576       -1.5038497420       -1.3756984591  CLST      74              1.0000000000
       367        74  DCM       H1             -1.1326113957       -0.6950128117       -0.7065116239  CLST      74              1.0000000000
       368        74  DCM       H2             -1.4732771652       -2.3707085717       -1.3646913762  CLST      74              1.0000000000
       369        74  DCM       CL1            -0.6741987204       -0.8673583438       -3.0398779708  CLST      74              1.0000000000
       370        74  DCM       CL2             0.8364723902       -2.0485904476       -0.8309782242  CLST      74              1.0000000000
       371        75  DCM       C              -1.7304994256        1.8230452118       -1.7789439772  CLST      75              1.0000000000
       372        75  DCM       H1             -2.3437733238        1.6315069180       -0.8731045205  CLST      75              1.0000000000
       373        75  DCM       H2             -1.4201679329        0.8725602221       -2.2620165448  CLST      75              1.0000000000
       374        75  DCM       CL1            -2.6958595365        2.7772014358       -2.9421368399  CLST      75              1.0000000000
       375        75  DCM       CL2            -0.2704959212        2.7397882393       -1.3080840713  CLST      75              1.0000000000
       376        76  DCM       C               0.3844090829       -0.7745369170       -2.0238843757  CLST      76              1.0000000000
       377        76  DCM       H1              0.0807203574       -1.1592338195       -3.0188124780  CLST      76              1.0000000000
       378        76  DCM       H2              0.4220279710        0.3345886661       -2.0190857836  CLST      76              1.0000000000
       379        76  DCM       CL1            -0.8013766684       -1.3209010658       -0.8042423217  CLST      76              1.0000000000
       380        76  DCM       CL2             2.0044490626       -1.4173231179       -1.6268195591  CLST      76              1.0000000000
       381        77  DCM       C               1.6928511340       -1.1915703290       -0.4875471869  CLST      77              1.0000000000
       382        77  DCM       H1              2.7847345192       -1.3193230694       -0.3294500320  CLST      77              1.0000000000
       383        77  DCM       H2              1.4668727475       -0.9586355298       -1.5499483040  CLST      77              1.0000000000
       384        77  DCM       CL1             0.8543399042       -2.7029837332       -0.0307969052  CLST      77              1.0000000000
       385        77  DCM       CL2             1.1114815347        0.1516026953        0.5360669905  CLST      77              1.0000000000
       386        78  DCM       C               2.3321246581       -1.8624201477       -1.0332112407  CLST      78              1.0000000000
       387        78  DCM       H1              1.9376602668       -2.3046691967       -0.0958223115  CLST      78              1.0000000000
       388        78  DCM       H2              2.8726834647       -2.6239603660       -1.6337914933  CLST      78              1.0000000000
       389        78  DCM       CL1             0.9560935486       -1.2329279726       -1.9787316299  CLST      78              1.0000000000
       390        78  DCM       CL2             3.4521414183       -0.5304451614       -0.6280583017  CLST      78              1.0000000000
       391        79  DCM       C               0.6542268472       -2.2348508678       -0.1145218264  CLST      79              1.0000000000
       392        79  DCM       H1              0.0798685231       -3.0347971513       -0.6264157764  CLST      79              1.0000000000
       393        79  DCM       H2             -0.0108562153       -1.3983660984        0.1870656287  CLST      79              1.0000000000
       394        79  DCM       CL1             1.4269361859       -2.9231704348        1.3422594014  CLST      79              1.0000000000
       395        79  DCM       CL2             1.9074509043       -1.6135485712       -1.2274336884  CLST      79              1.0000000000
       396        80  DCM       C              -0.2614039753       -0.6340903313       -2.4248693023  CLST      80              1.0000000000
       397        80  DCM       H1             -0.4308444944       -0.2795726862       -1.3862217726  CLST      80              1.0000000000
       398        80  DCM       H2             -1.1270805049       -1.2274430423       -2.7888334420  CLST      80              1.0000000000
       399        80  DCM       CL1            -0.0352321076        0.7829541061       -3.4920090200  CLST      80              1.0000000000
       400        80  DCM       CL2             1.2021109989       -1.6600836272       -2.4585252919  CLST      80              1.0000000000
       401        81  DCM       C              -3.1133886908        2.6784068535       -1.3346804909  CLST      81              1.0000000000
       402        81  DCM       H1             -4.0342008740        2.6664848218       -0.7140232862  CLST      81              1.0000000000
       403        81  DCM       H2             -2.8473984686        3.7126791465       -1.6370816364  CLST      81              1.0000000000
       404        81  DCM       CL1            -1.7658647260        1.9869870671       -0.3859676293  CLST      81              1.0000000000
       405        81  DCM       CL2            -3.3899551925        1.7006288381       -2.8049076964  CLST      81              1.0000000000
       406        82  DCM       C               1.6293123997        0.2314183935       -0.4264802715  CLST      82              1.0000000000
       407        82  DCM       H1              0.7375080317       -0.0443711882        0.1743688276  CLST      82              1.0000000000
       408        82  DCM       H2              1.8251158321        1.3227889738       -0.3703090737  CLST      82              1.0000000000
       409        82  DCM       CL1             1.3472400032       -0.2235642141       -2.1312448516  CLST      82              1.0000000000
       410        82  DCM       CL2             3.0479251902       -0.6500786335        0.2094353996  CLST      82              1.0000000000
       411        83  DCM       C              -1.3159437886       -2.5049333289       -2.0658026895  CLST      83              1.0000000000
       412        83  DCM       H1             -0.2835167172       -2.6490608228       -2.4543214339  CLST      83              1.0000000000
       413        83  DCM       H2             -1.4222672404       -1.5182992563       -1.5692157070  CLST      83              1.0000000000
       414        83  DCM       CL1            -2.4656618694       -2.5873680337       -3.4309478358  CLST      83              1.0000000000
       415        83  DCM       CL2            -1.6836688674       -3.7961355448       -0.8859859946  CLST      83              1.0000000000
       416        84  DCM       C               2.5466240351        2.7389708002        2.3203771363  CLST      84              1.0000000000
       417        84  DCM       H1              3.3659111117        3.3580507534        1.8976483897  CLST      84              1.0000000000
       418        84  DCM       H2              2.5673925156        2.7560136043        3.4304330728  CLST      84              1.0000000000
       419        84  DCM       CL1             0.9786340152        3.3876636153        1.7575263015  CLST      84              1.0000000000
       420        84  DCM       CL2             2.7411966249        1.0519659668        1.7622061470  CLST      84              1.0000000000
       421        85  DCM       C              -1.7985813414        2.1725395860       -3.2856179270  CLST      85              1.0000000000
       422        85  DCM       H1             -2.6804233659        2.7390857399       -3.6510243049  CLST      85              1.0000000000
       423        85  DCM       H2             -0.9714031334        2.1958456190       -4.0232937767  CLST      85              1.0000000000
       424        85  DCM       CL1            -1.2174964716        2.9167927371       -1.7741185813  CLST      85              1.0000000000
       425        85  DCM       CL2            -2.2704766401        0.4741049924       -2.9921362686  CLST      85              1.0000000000
       426        86  DCM       C               0.2707632048        2.7696937744        1.2671057716  CLST      86              1.0000000000
       427        86  DCM       H1              1.2485257886        3.2890687515        1.3510915932  CLST      86              1.0000000000
       428        86  DCM       H2              0.0480654076        2.1891321940        2.1874448804  CLST      86              1.0000000000
       429        86  DCM       CL1            -1.0139712340        3.9871086438        1.0191271453  CLST      86              1.0000000000
       430        86  DCM       CL2             0.3234991533        1.6526418129       -0.1264792852  CLST      86              1.0000000000
       431        87  DCM       C               2.4583162228       -0.8522433458       -2.5367944589  CLST      87              1.0000000000
       432        87  DCM       H1              1.4167927798       -0.9741829074       -2.9028638779  CLST      87              1.0000000000
       433        87  DCM       H2              2.9273952530        0.0566682240       -2.9684137190  CLST      87              1.0000000000
       434        87  DCM       CL1             2.4390046014       -0.6996972781       -0.7563498927  CLST      87              1.0000000000
       435        87  DCM       CL2             3.4170529347       -2.2815208762       -3.0149954418  CLST      87              1.0000000000
       436        88  DCM       C               3.1472074400        0.4387824847       -2.3353494456  CLST      88              1.0000000000
       437        88  DCM       H1              3.7202552519        0.3432141546       -3.2803694324  CLST      88              1.0000000000
       438        88  DCM       H2              3.6112789015        1.1884784164       -1.6614330039  CLST      88              1.0000000000
       439        88  DCM       CL1             3.1240838203       -1.1435697413       -1.5101603624  CLST      88              1.0000000000
       440        88  DCM       CL2             1.4757111180        0.9446524617       -2.7130702849  CLST      88              1.0000000000
       441        89  DCM       C               0.1478040752        2.1922047359        2.8097772630  CLST      89              1.0000000000
       442        89  DCM       H1              0.8603311028        1.5948021952        3.4158154066  CLST      89              1.0000000000
       443        89  DCM       H2              0.6879453689        2.8773949130        2.1216106860  CLST      89              1.0000000000
       444        89  DCM       CL1            -0.8684250971        1.0813504544        1.8463215357  CLST      89              1.0000000000
       445        89  DCM       CL2            -0.8840421261        3.1584885974        3.9036772068  CLST      89              1.0000000000
       446        90  DCM       C               0.8509679327        0.6284534546        3.0288905060  CLST      90              1.0000000000
       447        90  DCM       H1              1.4016783325        1.4176652649        3.5827936449  CLST      90              1.0000000000
       448        90  DCM       H2              1.5459003772       -0.1530813277        2.6577361551  CLST      90              1.0000000000
       449        90  DCM       CL1            -0.3394583409       -0.1251209612        4.1262363274  CLST      90              1.0000000000
       450        90  DCM       CL2             0.0057350353        1.3730946311        1.6406628736  CLST      90              1.0000000000
       451        91  DCM       C              -0.3984209631        2.3687651102       -0.6614835307  CLST      91              1.0000000000
       452        91  DCM       H1              0.0270870905        2.2397000156       -1.6788613770  CLST      91              1.0000000000
       453        91  DCM       H2             -0.9433067751        1.4579062540       -0.3360752173  CLST      91              1.0000000000
       454        91  DCM       CL1             0.9311717963        2.6925727178        0.4897021263  CLST      91              1.0000000000
       455        91  DCM       CL2            -1.5356747204        3.7474867067       -0.6821683295  CLST      91              1.0000000000
       456        92  DCM       C               3.0137621094       -0.5105560449       -2.5911516157  CLST      92              1.0000000000
       457        92  DCM       H1              3.8497953969       -0.6392300648       -3.3118310962  CLST      92              1.0000000000
       458        92  DCM       H2              2.0719794572       -0.9439598994       -2.9901513453  CLST      92              1.0000000000
       459        92  DCM       CL1             3.4325516706       -1.3406993997       -1.0642721960  CLST      92              1.0000000000
       460        92  DCM       CL2             2.7703044124        1.2344022825       -2.2892193159  CLST      92              1.0000000000
       461        93  DCM       C               0.6262748332       -1.1716393912        2.9233075879  CLST      93              1.0000000000
       462        93  DCM       H1             -0.0854492224       -1.0137136478        3.7599500830  CLST      93              1.0000000000
       463        93  DCM       H2              1.6612723108       -0.9018362934        3.2199874546  CLST      93              1.0000000000
       464        93  DCM       CL1             0.1391073992       -0.1608228701        1.5361992889  CLST      93              1.0000000000
       465        93  DCM       CL2             0.5955043072       -2.8911621741        2.4460088720  CLST      93              1.0000000000
       466        94  DCM       C              -2.7836894612        0.5533149763       -0.1755914195  CLST      94              1.0000000000
       467        94  DCM       H1             -1.7603839184        0.1522852503       -0.0159973928  CLST      94              1.0000000000
       468        94  DCM       H2             -3.2356990539        0.8888173100        0.7812152160  CLST      94              1.0000000000
       469        94  DCM       CL1            -2.6990792627        1.9436227395       -1.2954971448  CLST      94              1.0000000000
       470        94  DCM       CL2            -3.8063097338       -0.7297887992       -0.8827315886  CLST      94              1.0000000000
       471        95  DCM       C               2.5448235371       -0.1707353702        1.3627622512  CLST      95              1.0000000000
       472        95  DCM       H1              2.0103632823       -0.8350286795        2.0738320391  CLST      95              1.0000000000
       473        95  DCM       H2              2.2185205194       -0.3695643410        0.3199585345  CLST      95              1.0000000000
       474        95  DCM       CL1             2.1887779522        1.5315634585        1.7741734913  CLST      95              1.0000000000
       475        95  DCM       CL2             4.3044057419       -0.4604987357        1.4929074884  CLST      95              1.0000000000
