* CHARMM CGENFF SD/ABNR BEFORE MLPOT (MM ONLY)
*  DATE:     6/28/26      2: 1:50      CREATED BY USER: boittier
*
       460  EXT
         1         1  DCM       C               6.4166145369       -6.8076111257       -0.1231718175  CLST      1               1.0000000000
         2         1  DCM       H1              7.1980291064       -6.0203582010       -0.1094559074  CLST      1               1.0000000000
         3         1  DCM       H2              6.3805618383       -7.3536503153        0.8431362058  CLST      1               1.0000000000
         4         1  DCM       CL1             4.8265003095       -6.0483718972       -0.4182164047  CLST      1               1.0000000000
         5         1  DCM       CL2             6.7930846433       -7.9703484640       -1.4258261727  CLST      1               1.0000000000
         6         2  DCM       C               7.2018815078        4.2525894967        8.2147569100  CLST      2               1.0000000000
         7         2  DCM       H1              6.4383230447        4.4645221395        8.9934789142  CLST      2               1.0000000000
         8         2  DCM       H2              7.6133898914        5.1951759774        7.7962461273  CLST      2               1.0000000000
         9         2  DCM       CL1             8.5328050806        3.3123509945        8.9481887125  CLST      2               1.0000000000
        10         2  DCM       CL2             6.4425897018        3.3109781849        6.8982845231  CLST      2               1.0000000000
        11         3  DCM       C              -3.6845751738       -6.6499958164        2.2990296375  CLST      3               1.0000000000
        12         3  DCM       H1             -2.6976695823       -6.5575074822        1.7987135073  CLST      3               1.0000000000
        13         3  DCM       H2             -3.7034140876       -6.0743037699        3.2464240714  CLST      3               1.0000000000
        14         3  DCM       CL1            -4.9580884516       -6.0200478295        1.2137415629  CLST      3               1.0000000000
        15         3  DCM       CL2            -3.9946760749       -8.3699787899        2.6687918098  CLST      3               1.0000000000
        16         4  DCM       C               6.8802060977       -7.2600547733       -5.0501528288  CLST      4               1.0000000000
        17         4  DCM       H1              6.0969413717       -8.0437060223       -4.9930862677  CLST      4               1.0000000000
        18         4  DCM       H2              7.7611540604       -7.5316306623       -4.4311403344  CLST      4               1.0000000000
        19         4  DCM       CL1             7.3953546356       -7.0741532495       -6.7512545053  CLST      4               1.0000000000
        20         4  DCM       CL2             6.2015112483       -5.7204224494       -4.4510047130  CLST      4               1.0000000000
        21         5  DCM       C               5.9474143028        0.5144217772       -4.4358790126  CLST      5               1.0000000000
        22         5  DCM       H1              7.0534812022        0.4711409844       -4.5065654773  CLST      5               1.0000000000
        23         5  DCM       H2              5.4803422599        0.3739677482       -5.4333132794  CLST      5               1.0000000000
        24         5  DCM       CL1             5.4637454745        2.1053442745       -3.7821709963  CLST      5               1.0000000000
        25         5  DCM       CL2             5.3834976197       -0.7803456796       -3.3443648791  CLST      5               1.0000000000
        26         6  DCM       C              -7.7912366238       -5.6600011713        3.4638652545  CLST      6               1.0000000000
        27         6  DCM       H1             -8.7715844950       -5.7816134305        3.9704062029  CLST      6               1.0000000000
        28         6  DCM       H2             -7.7389044142       -6.2749714712        2.5402660710  CLST      6               1.0000000000
        29         6  DCM       CL1            -7.5709795415       -3.9399177775        3.0306336762  CLST      6               1.0000000000
        30         6  DCM       CL2            -6.4932870676       -6.1754133014        4.5789800963  CLST      6               1.0000000000
        31         7  DCM       C               1.4362296433       -2.3409171640        8.6971936036  CLST      7               1.0000000000
        32         7  DCM       H1              2.1750150669       -2.3836088848        7.8692392377  CLST      7               1.0000000000
        33         7  DCM       H2              1.9326008539       -2.4810305914        9.6801662017  CLST      7               1.0000000000
        34         7  DCM       CL1             0.6317685844       -0.7456159904        8.6798892629  CLST      7               1.0000000000
        35         7  DCM       CL2             0.2295050788       -3.6404283862        8.4713367244  CLST      7               1.0000000000
        36         8  DCM       C               4.0897866038      -12.9997840975       -8.1835152250  CLST      8               1.0000000000
        37         8  DCM       H1              3.5054318647      -13.9107417346       -8.4319532176  CLST      8               1.0000000000
        38         8  DCM       H2              4.6148204854      -13.1157289445       -7.2119129146  CLST      8               1.0000000000
        39         8  DCM       CL1             5.2957294119      -12.7110416236       -9.4709318708  CLST      8               1.0000000000
        40         8  DCM       CL2             2.9776266748      -11.6062816689       -8.0780520093  CLST      8               1.0000000000
        41         9  DCM       C               2.6260617911        2.1359173590       -6.0053359138  CLST      9               1.0000000000
        42         9  DCM       H1              3.6499100254        2.2907069784       -6.4108028333  CLST      9               1.0000000000
        43         9  DCM       H2              2.4605826010        2.7510053128       -5.0977459553  CLST      9               1.0000000000
        44         9  DCM       CL1             1.4348728614        2.6043278805       -7.2512868273  CLST      9               1.0000000000
        45         9  DCM       CL2             2.4215352383        0.4099962673       -5.5903390294  CLST      9               1.0000000000
        46        10  DCM       C               9.8518167791       -7.5333400884        1.0793650228  CLST      10              1.0000000000
        47        10  DCM       H1              9.5737606438       -7.4665327475        0.0068573476  CLST      10              1.0000000000
        48        10  DCM       H2             10.9314337170       -7.7670451842        1.1962119143  CLST      10              1.0000000000
        49        10  DCM       CL1             9.5089668791       -5.9659134488        1.8690999995  CLST      10              1.0000000000
        50        10  DCM       CL2             8.8874976776       -8.8269557450        1.8507465920  CLST      10              1.0000000000
        51        11  DCM       C               3.5190781891       -9.8979570963       -3.6111419006  CLST      11              1.0000000000
        52        11  DCM       H1              3.5252477546      -10.0584184384       -4.7096336194  CLST      11              1.0000000000
        53        11  DCM       H2              2.5627017075      -10.2442118967       -3.1661735882  CLST      11              1.0000000000
        54        11  DCM       CL1             4.8687157557      -10.8147250723       -2.8832306859  CLST      11              1.0000000000
        55        11  DCM       CL2             3.7214151371       -8.1554946722       -3.2716789266  CLST      11              1.0000000000
        56        12  DCM       C              -6.7648900705        3.8433012230       -9.0261153294  CLST      12              1.0000000000
        57        12  DCM       H1             -7.0441051194        2.8428453213       -8.6334034005  CLST      12              1.0000000000
        58        12  DCM       H2             -5.8031868133        4.1883038434       -8.5917548785  CLST      12              1.0000000000
        59        12  DCM       CL1            -6.5987479726        3.7389314649      -10.8020911288  CLST      12              1.0000000000
        60        12  DCM       CL2            -8.0507065836        5.0077459233       -8.5988683486  CLST      12              1.0000000000
        61        13  DCM       C             -11.2410605701       12.1544258868        4.8007744707  CLST      13              1.0000000000
        62        13  DCM       H1            -11.4556248350       11.0649211889        4.8025039217  CLST      13              1.0000000000
        63        13  DCM       H2            -11.8307309485       12.6766890804        4.0179806416  CLST      13              1.0000000000
        64        13  DCM       CL1           -11.6662434826       12.8304274318        6.4002654544  CLST      13              1.0000000000
        65        13  DCM       CL2            -9.5001738558       12.4044924734        4.4804154702  CLST      13              1.0000000000
        66        14  DCM       C              -1.7673747075       -0.1678099926        6.1163023021  CLST      14              1.0000000000
        67        14  DCM       H1             -0.6611163325       -0.0847658293        6.0726121995  CLST      14              1.0000000000
        68        14  DCM       H2             -2.1837652121        0.4905396003        6.9050210430  CLST      14              1.0000000000
        69        14  DCM       CL1            -2.4458279498        0.3081724050        4.5325986203  CLST      14              1.0000000000
        70        14  DCM       CL2            -2.2130437604       -1.8569816318        6.4915262247  CLST      14              1.0000000000
        71        15  DCM       C              -3.1510619191      -10.8125253515       -4.7278863397  CLST      15              1.0000000000
        72        15  DCM       H1             -2.3097959824      -10.1965340584       -4.3442475399  CLST      15              1.0000000000
        73        15  DCM       H2             -3.4541866571      -11.5807583730       -3.9858594017  CLST      15              1.0000000000
        74        15  DCM       CL1            -4.5475878462       -9.7501356902       -5.0685834652  CLST      15              1.0000000000
        75        15  DCM       CL2            -2.6352302401      -11.6276125447       -6.2325432469  CLST      15              1.0000000000
        76        16  DCM       C              -1.0592168343       -0.5764406699       -4.7859309605  CLST      16              1.0000000000
        77        16  DCM       H1             -1.9332531609       -0.5338102823       -4.1029785554  CLST      16              1.0000000000
        78        16  DCM       H2             -0.1217254302       -0.3407569409       -4.2427475532  CLST      16              1.0000000000
        79        16  DCM       CL1            -1.2802846126        0.6007124098       -6.1088255574  CLST      16              1.0000000000
        80        16  DCM       CL2            -0.9328338314       -2.2169350824       -5.4741456330  CLST      16              1.0000000000
        81        17  DCM       C              -3.9920680732       -2.9157635042        3.3655096819  CLST      17              1.0000000000
        82        17  DCM       H1             -4.6098939396       -3.8221390809        3.5384639992  CLST      17              1.0000000000
        83        17  DCM       H2             -4.0213632938       -2.2414152187        4.2454431441  CLST      17              1.0000000000
        84        17  DCM       CL1            -2.3020030836       -3.4070686027        3.0692544546  CLST      17              1.0000000000
        85        17  DCM       CL2            -4.6232671030       -2.0377561323        1.9457769854  CLST      17              1.0000000000
        86        18  DCM       C              -4.7457675627       -1.3160311045       -5.3003080208  CLST      18              1.0000000000
        87        18  DCM       H1             -4.0186319907       -0.7700321689       -5.9349907431  CLST      18              1.0000000000
        88        18  DCM       H2             -4.4062033737       -2.3577375121       -5.1285457468  CLST      18              1.0000000000
        89        18  DCM       CL1            -4.8978732594       -0.4832668925       -3.7265046752  CLST      18              1.0000000000
        90        18  DCM       CL2            -6.3327994411       -1.3477475785       -6.1185676916  CLST      18              1.0000000000
        91        19  DCM       C              -0.0324123563      -13.7470415490      -11.1086911990  CLST      19              1.0000000000
        92        19  DCM       H1             -0.4201718344      -14.7686809450      -11.3069947181  CLST      19              1.0000000000
        93        19  DCM       H2             -0.4557607580      -13.3371398180      -10.1674064369  CLST      19              1.0000000000
        94        19  DCM       CL1             1.7476434537      -13.8140649744      -10.9615944193  CLST      19              1.0000000000
        95        19  DCM       CL2            -0.4873040947      -12.6787546628      -12.4686855614  CLST      19              1.0000000000
        96        20  DCM       C              -4.2667501198        5.6002770736        4.9471685115  CLST      20              1.0000000000
        97        20  DCM       H1             -4.7390951567        5.0741241556        5.8036482974  CLST      20              1.0000000000
        98        20  DCM       H2             -3.6492683492        6.4553803512        5.2945985317  CLST      20              1.0000000000
        99        20  DCM       CL1            -3.2237589235        4.4517697741        4.0582564653  CLST      20              1.0000000000
       100        20  DCM       CL2            -5.5499999755        6.2158669303        3.8669099846  CLST      20              1.0000000000
       101        21  DCM       C              10.6120624200        0.5504879313       10.3215051978  CLST      21              1.0000000000
       102        21  DCM       H1              9.6158259069        0.5893798734        9.8336344865  CLST      21              1.0000000000
       103        21  DCM       H2             11.4026195576        0.9328337091        9.6425597559  CLST      21              1.0000000000
       104        21  DCM       CL1            10.5717642567        1.5599077433       11.7960672116  CLST      21              1.0000000000
       105        21  DCM       CL2            10.9822553435       -1.1434601583       10.7561624994  CLST      21              1.0000000000
       106        22  DCM       C              -8.3709285493       -1.6390900367       -9.3369031533  CLST      22              1.0000000000
       107        22  DCM       H1             -7.9150048859       -2.1820695888       -8.4827858948  CLST      22              1.0000000000
       108        22  DCM       H2             -9.4763383810       -1.6023287373       -9.2410101413  CLST      22              1.0000000000
       109        22  DCM       CL1            -7.7308007084        0.0300749368       -9.3707097492  CLST      22              1.0000000000
       110        22  DCM       CL2            -7.9441259410       -2.4844771820      -10.8531527245  CLST      22              1.0000000000
       111        23  DCM       C              -4.6419651950       -5.3681007743        9.1535097645  CLST      23              1.0000000000
       112        23  DCM       H1             -5.1454588650       -5.1043495674       10.1081414882  CLST      23              1.0000000000
       113        23  DCM       H2             -4.3276950936       -4.4574166141        8.6018467088  CLST      23              1.0000000000
       114        23  DCM       CL1            -3.1974188922       -6.3549860293        9.5152102513  CLST      23              1.0000000000
       115        23  DCM       CL2            -5.7730199717       -6.3075655512        8.1366231290  CLST      23              1.0000000000
       116        24  DCM       C              -8.4478573983       -6.2006876675       -7.2707067742  CLST      24              1.0000000000
       117        24  DCM       H1             -9.4664965324       -6.6248894394       -7.1471994509  CLST      24              1.0000000000
       118        24  DCM       H2             -7.7094015016       -6.7537765083       -6.6523826225  CLST      24              1.0000000000
       119        24  DCM       CL1            -7.9733483322       -6.3162616408       -8.9904288708  CLST      24              1.0000000000
       120        24  DCM       CL2            -8.4658378453       -4.4875063567       -6.7622301732  CLST      24              1.0000000000
       121        25  DCM       C              -9.7027358067        5.9069831052      -11.6326822688  CLST      25              1.0000000000
       122        25  DCM       H1             -9.3894100141        4.8422071616      -11.5975211248  CLST      25              1.0000000000
       123        25  DCM       H2            -10.0977722577        6.2394464301      -10.6497326915  CLST      25              1.0000000000
       124        25  DCM       CL1            -8.2896758992        6.9148205064      -12.0611093024  CLST      25              1.0000000000
       125        25  DCM       CL2           -10.9803574461        6.0973255172      -12.8684830807  CLST      25              1.0000000000
       126        26  DCM       C              -4.9778173408       -5.6756068024       -5.5055278276  CLST      26              1.0000000000
       127        26  DCM       H1             -4.8462029698       -6.7226488159       -5.1610572657  CLST      26              1.0000000000
       128        26  DCM       H2             -5.6036523502       -5.6316148615       -6.4202043134  CLST      26              1.0000000000
       129        26  DCM       CL1            -5.7759552651       -4.7281842192       -4.2176833827  CLST      26              1.0000000000
       130        26  DCM       CL2            -3.3752743728       -4.9815239340       -5.8796741534  CLST      26              1.0000000000
       131        27  DCM       C               0.6867726760       -3.6159980061       -8.7418559461  CLST      27              1.0000000000
       132        27  DCM       H1              1.3101114356       -4.1050928226       -9.5192518934  CLST      27              1.0000000000
       133        27  DCM       H2             -0.1457458326       -3.0399861061       -9.1987057959  CLST      27              1.0000000000
       134        27  DCM       CL1             0.0016274424       -4.8719245139       -7.6717610340  CLST      27              1.0000000000
       135        27  DCM       CL2             1.7068628029       -2.4990886126       -7.7903866226  CLST      27              1.0000000000
       136        28  DCM       C               3.5445429100        5.6967639789       -7.4471803736  CLST      28              1.0000000000
       137        28  DCM       H1              3.8325419053        6.7346699269       -7.7176078236  CLST      28              1.0000000000
       138        28  DCM       H2              2.4460773957        5.6093315645       -7.3086332168  CLST      28              1.0000000000
       139        28  DCM       CL1             4.0534963328        4.5934826429       -8.7590603265  CLST      28              1.0000000000
       140        28  DCM       CL2             4.3605712369        5.2472702023       -5.9203330752  CLST      28              1.0000000000
       141        29  DCM       C              -3.4154730484       -3.5895538328       -1.1723051938  CLST      29              1.0000000000
       142        29  DCM       H1             -4.3123082763       -4.2411979819       -1.2361725086  CLST      29              1.0000000000
       143        29  DCM       H2             -3.6469490535       -2.6313993862       -0.6631165848  CLST      29              1.0000000000
       144        29  DCM       CL1            -2.8306927715       -3.2337344990       -2.8145386611  CLST      29              1.0000000000
       145        29  DCM       CL2            -2.1338755138       -4.4388208882       -0.2709734152  CLST      29              1.0000000000
       146        30  DCM       C               7.6380438044      -11.7038675109       -6.6718232892  CLST      30              1.0000000000
       147        30  DCM       H1              7.7584648396      -11.7781234114       -7.7738044005  CLST      30              1.0000000000
       148        30  DCM       H2              8.5345886056      -11.2493299831       -6.2011155792  CLST      30              1.0000000000
       149        30  DCM       CL1             6.2148442354      -10.6867006867       -6.3108894749  CLST      30              1.0000000000
       150        30  DCM       CL2             7.3937851709      -13.3434190700       -6.0033709086  CLST      30              1.0000000000
       151        31  DCM       C               8.2678727913       -0.0896518939      -11.4356726479  CLST      31              1.0000000000
       152        31  DCM       H1              8.9296981245        0.2773335270      -10.6235981716  CLST      31              1.0000000000
       153        31  DCM       H2              8.8446886530       -0.6589227680      -12.1950028672  CLST      31              1.0000000000
       154        31  DCM       CL1             7.0231174355       -1.1599123416      -10.7299386743  CLST      31              1.0000000000
       155        31  DCM       CL2             7.4857832102        1.3097348734      -12.2267002654  CLST      31              1.0000000000
       156        32  DCM       C              -5.4522388253        7.6033939646      -10.0446357175  CLST      32              1.0000000000
       157        32  DCM       H1             -5.7680079171        6.5594487686      -10.2420897536  CLST      32              1.0000000000
       158        32  DCM       H2             -5.5686382037        8.2330069908      -10.9534120898  CLST      32              1.0000000000
       159        32  DCM       CL1            -6.4650720878        8.2804311687       -8.7358128059  CLST      32              1.0000000000
       160        32  DCM       CL2            -3.7348683932        7.6073033543       -9.5492567123  CLST      32              1.0000000000
       161        33  DCM       C               1.6617317177       -4.5606698518        0.6645532674  CLST      33              1.0000000000
       162        33  DCM       H1              2.6330904312       -4.5238312337        1.1993657721  CLST      33              1.0000000000
       163        33  DCM       H2              1.8168449285       -4.6462678659       -0.4321490091  CLST      33              1.0000000000
       164        33  DCM       CL1             0.7247759534       -5.9712075423        1.2380787190  CLST      33              1.0000000000
       165        33  DCM       CL2             0.7617861399       -3.0578943009        1.0089249061  CLST      33              1.0000000000
       166        34  DCM       C               0.8926676667       -9.9444054051      -10.6653703538  CLST      34              1.0000000000
       167        34  DCM       H1              0.3379693967       -9.6064708865      -11.5666963630  CLST      34              1.0000000000
       168        34  DCM       H2              1.5548266662      -10.8039289847      -10.9021692349  CLST      34              1.0000000000
       169        34  DCM       CL1             1.8942774054       -8.5943320760      -10.0587862747  CLST      34              1.0000000000
       170        34  DCM       CL2            -0.2849166392      -10.4451820301       -9.4163237438  CLST      34              1.0000000000
       171        35  DCM       C               9.1680831218       -4.2485676914       11.7502115086  CLST      35              1.0000000000
       172        35  DCM       H1              8.9387353637       -5.1300917781       12.3856016635  CLST      35              1.0000000000
       173        35  DCM       H2             10.1672973543       -3.8290403637       11.9935316288  CLST      35              1.0000000000
       174        35  DCM       CL1             9.1495431926       -4.7477776577       10.0343667725  CLST      35              1.0000000000
       175        35  DCM       CL2             7.9276146577       -2.9925084792       12.0286684688  CLST      35              1.0000000000
       176        36  DCM       C               2.0809418149        0.8510734444       -1.7715306282  CLST      36              1.0000000000
       177        36  DCM       H1              2.6706196870        0.2972325123       -2.5307498009  CLST      36              1.0000000000
       178        36  DCM       H2              1.5401615167        0.1511091170       -1.0995370386  CLST      36              1.0000000000
       179        36  DCM       CL1             3.1899171974        1.8532023670       -0.7926751808  CLST      36              1.0000000000
       180        36  DCM       CL2             0.8924123287        1.8968205350       -2.6000949478  CLST      36              1.0000000000
       181        37  DCM       C              -8.9064786254        8.1508663418       11.9118958617  CLST      37              1.0000000000
       182        37  DCM       H1             -8.5491651912        7.8783238175       10.8969188603  CLST      37              1.0000000000
       183        37  DCM       H2             -9.6829640574        8.9433247791       11.8621513640  CLST      37              1.0000000000
       184        37  DCM       CL1            -9.6004389626        6.7000004467       12.6921071619  CLST      37              1.0000000000
       185        37  DCM       CL2            -7.5225664565        8.7526173449       12.8699649637  CLST      37              1.0000000000
       186        38  DCM       C              -4.2349321854        2.4675636437        8.5562250901  CLST      38              1.0000000000
       187        38  DCM       H1             -4.0235421347        2.8245997863        9.5848138555  CLST      38              1.0000000000
       188        38  DCM       H2             -4.1817381158        1.3597541568        8.5064951181  CLST      38              1.0000000000
       189        38  DCM       CL1            -5.8708317749        3.0027740673        8.0823440574  CLST      38              1.0000000000
       190        38  DCM       CL2            -3.0319372734        3.1607739458        7.4334928880  CLST      38              1.0000000000
       191        39  DCM       C              -9.2516820359       -4.6560146992        7.3884503928  CLST      39              1.0000000000
       192        39  DCM       H1             -9.9357860679       -4.4411591993        8.2372459444  CLST      39              1.0000000000
       193        39  DCM       H2             -8.1940482912       -4.4926886876        7.6782840723  CLST      39              1.0000000000
       194        39  DCM       CL1            -9.4609810557       -6.3604264502        6.8905380405  CLST      39              1.0000000000
       195        39  DCM       CL2            -9.6583403135       -3.5677900650        6.0306400087  CLST      39              1.0000000000
       196        40  DCM       C              -3.2883396071       -7.3851808044       -2.3087771092  CLST      40              1.0000000000
       197        40  DCM       H1             -3.0360838876       -6.3091952102       -2.4114311089  CLST      40              1.0000000000
       198        40  DCM       H2             -2.9226410437       -7.9595349915       -3.1859674043  CLST      40              1.0000000000
       199        40  DCM       CL1            -2.5246786358       -8.0317295842       -0.8278230405  CLST      40              1.0000000000
       200        40  DCM       CL2            -5.0619910312       -7.5598401474       -2.1882851372  CLST      40              1.0000000000
       201        41  DCM       C              -6.2457652071        2.4593497212        4.2209141073  CLST      41              1.0000000000
       202        41  DCM       H1             -6.3315526823        3.4190691071        3.6703224415  CLST      41              1.0000000000
       203        41  DCM       H2             -5.4998996801        2.5326149486        5.0415987693  CLST      41              1.0000000000
       204        41  DCM       CL1            -7.8394414482        2.0451622279        4.9151267534  CLST      41              1.0000000000
       205        41  DCM       CL2            -5.7286508902        1.1863553506        3.0794856157  CLST      41              1.0000000000
       206        42  DCM       C              -1.8320486889        4.2707183403       11.5261600406  CLST      42              1.0000000000
       207        42  DCM       H1             -2.4985822619        3.9041944053       12.3354145365  CLST      42              1.0000000000
       208        42  DCM       H2             -1.0004143339        4.8813585170       11.9372661103  CLST      42              1.0000000000
       209        42  DCM       CL1            -1.1491935866        2.8702640277       10.6478178569  CLST      42              1.0000000000
       210        42  DCM       CL2            -2.7870125538        5.2798287257       10.4038641060  CLST      42              1.0000000000
       211        43  DCM       C               5.6314110497        1.4707303037       10.5479297253  CLST      43              1.0000000000
       212        43  DCM       H1              5.8935564528        1.6580215569        9.4856578769  CLST      43              1.0000000000
       213        43  DCM       H2              4.7118780243        0.8534748346       10.6289315147  CLST      43              1.0000000000
       214        43  DCM       CL1             5.3524817127        3.0371988694       11.3615830713  CLST      43              1.0000000000
       215        43  DCM       CL2             6.9850038466        0.6079636640       11.3341805897  CLST      43              1.0000000000
       216        44  DCM       C               0.2039231356       -8.3258598532       -6.4356793384  CLST      44              1.0000000000
       217        44  DCM       H1              0.5299320516       -8.2145264919       -7.4903467709  CLST      44              1.0000000000
       218        44  DCM       H2              0.7296600329       -7.6028253184       -5.7791685657  CLST      44              1.0000000000
       219        44  DCM       CL1             0.5712452065       -9.9824908044       -5.8756462934  CLST      44              1.0000000000
       220        44  DCM       CL2            -1.5520699256       -8.0222095930       -6.3347411397  CLST      44              1.0000000000
       221        45  DCM       C              -1.6497620946       -6.4610400845        6.2258904676  CLST      45              1.0000000000
       222        45  DCM       H1             -2.0543106007       -7.4006212257        6.6587995965  CLST      45              1.0000000000
       223        45  DCM       H2             -0.9265343353       -5.9827356188        6.9189875459  CLST      45              1.0000000000
       224        45  DCM       CL1            -0.8296202320       -6.8313184369        4.6801317834  CLST      45              1.0000000000
       225        45  DCM       CL2            -2.9995755280       -5.3288860679        5.9391668044  CLST      45              1.0000000000
       226        46  DCM       C              -8.6599491804       10.6195100510        7.5134960762  CLST      46              1.0000000000
       227        46  DCM       H1             -9.0769281589       11.6489304734        7.5092140041  CLST      46              1.0000000000
       228        46  DCM       H2             -7.8488515195       10.5163937792        6.7619972575  CLST      46              1.0000000000
       229        46  DCM       CL1            -9.9657323213        9.4610021256        7.1278230880  CLST      46              1.0000000000
       230        46  DCM       CL2            -7.9987277000       10.2682851240        9.1356202857  CLST      46              1.0000000000
       231        47  DCM       C              -2.6014047979       -5.7237644957      -10.0557149703  CLST      47              1.0000000000
       232        47  DCM       H1             -2.6499689281       -5.3244087490       -9.0196522315  CLST      47              1.0000000000
       233        47  DCM       H2             -3.5931706086       -6.1019130302      -10.3824797511  CLST      47              1.0000000000
       234        47  DCM       CL1            -2.0821881317       -4.4210075876      -11.1629419448  CLST      47              1.0000000000
       235        47  DCM       CL2            -1.4218191905       -7.0639308412      -10.1063178910  CLST      47              1.0000000000
       236        48  DCM       C               5.1854807896       -3.8506437598        9.9387548267  CLST      48              1.0000000000
       237        48  DCM       H1              4.9929317898       -4.2923539376       10.9391520875  CLST      48              1.0000000000
       238        48  DCM       H2              6.2325393431       -4.0319114311        9.6191288949  CLST      48              1.0000000000
       239        48  DCM       CL1             4.0801100458       -4.5920120368        8.7503763687  CLST      48              1.0000000000
       240        48  DCM       CL2             4.8935427904       -2.0913241903       10.0160927737  CLST      48              1.0000000000
       241        49  DCM       C               1.8049689418       -6.0637399154       11.3304779165  CLST      49              1.0000000000
       242        49  DCM       H1              2.2900351523       -6.1770133624       10.3393442301  CLST      49              1.0000000000
       243        49  DCM       H2              2.1823780621       -6.8230412297       12.0473621285  CLST      49              1.0000000000
       244        49  DCM       CL1             2.1538393119       -4.4302992261       11.9673963531  CLST      49              1.0000000000
       245        49  DCM       CL2             0.0421445893       -6.2732439968       11.1323983459  CLST      49              1.0000000000
       246        50  DCM       C               5.1915892346       -5.6222096365        3.4225065739  CLST      50              1.0000000000
       247        50  DCM       H1              5.0019222270       -5.0476306876        4.3551496143  CLST      50              1.0000000000
       248        50  DCM       H2              5.4244253917       -4.9450472126        2.5753423861  CLST      50              1.0000000000
       249        50  DCM       CL1             3.7422781880       -6.5831750669        3.0170539079  CLST      50              1.0000000000
       250        50  DCM       CL2             6.5767576807       -6.7141868064        3.6848054696  CLST      50              1.0000000000
       251        51  DCM       C               7.3594818552       -2.9125576236        0.5208266963  CLST      51              1.0000000000
       252        51  DCM       H1              6.8004111311       -2.0149544883        0.8721407935  CLST      51              1.0000000000
       253        51  DCM       H2              7.1178546188       -3.7980404782        1.1407841884  CLST      51              1.0000000000
       254        51  DCM       CL1             9.1106847850       -2.5825925957        0.6245583898  CLST      51              1.0000000000
       255        51  DCM       CL2             6.9155216484       -3.2467932721       -1.1743996975  CLST      51              1.0000000000
       256        52  DCM       C               8.2893686727       -2.7818986759       -4.5948423812  CLST      52              1.0000000000
       257        52  DCM       H1              7.8918495532       -3.4540689701       -3.8071817580  CLST      52              1.0000000000
       258        52  DCM       H2              7.4671927904       -2.2402670955       -5.1036938917  CLST      52              1.0000000000
       259        52  DCM       CL1             9.3907007973       -1.5900458072       -3.8480432180  CLST      52              1.0000000000
       260        52  DCM       CL2             9.1750670362       -3.7649083684       -5.7953908695  CLST      52              1.0000000000
       261        53  DCM       C              -2.7479739346       10.1092684088        9.7611985621  CLST      53              1.0000000000
       262        53  DCM       H1             -3.8087266484       10.0665132077       10.0882921520  CLST      53              1.0000000000
       263        53  DCM       H2             -2.2597669463       11.0438588839       10.1093092535  CLST      53              1.0000000000
       264        53  DCM       CL1            -1.8721521193        8.7099821758       10.4452638880  CLST      53              1.0000000000
       265        53  DCM       CL2            -2.6852743622       10.0488274963        7.9755904730  CLST      53              1.0000000000
       266        54  DCM       C              -2.5841352040        3.9511485106       -3.5753329971  CLST      54              1.0000000000
       267        54  DCM       H1             -3.5615342776        4.2584604603       -4.0032807111  CLST      54              1.0000000000
       268        54  DCM       H2             -2.2751201481        4.6318696199       -2.7553932049  CLST      54              1.0000000000
       269        54  DCM       CL1            -2.7363471789        2.2923149892       -2.9293387789  CLST      54              1.0000000000
       270        54  DCM       CL2            -1.3473721070        3.9909646730       -4.8660365807  CLST      54              1.0000000000
       271        55  DCM       C              -1.5016381279       -0.1345368498        0.9984560912  CLST      55              1.0000000000
       272        55  DCM       H1             -2.3462842198        0.5374651243        1.2600238007  CLST      55              1.0000000000
       273        55  DCM       H2             -1.5981118930       -1.1130650273        1.5127385493  CLST      55              1.0000000000
       274        55  DCM       CL1            -1.4961404770       -0.4089203123       -0.7674925124  CLST      55              1.0000000000
       275        55  DCM       CL2             0.0338107473        0.6313161261        1.5003445106  CLST      55              1.0000000000
       276        56  DCM       C               8.2703377813       -1.2455896273        3.9931445300  CLST      56              1.0000000000
       277        56  DCM       H1              9.0797466934       -1.1507085043        3.2385667818  CLST      56              1.0000000000
       278        56  DCM       H2              8.6303779431       -0.9477409830        5.0000768456  CLST      56              1.0000000000
       279        56  DCM       CL1             6.9152260046       -0.1795898133        3.5273741405  CLST      56              1.0000000000
       280        56  DCM       CL2             7.7165065608       -2.9443779997        4.0499417933  CLST      56              1.0000000000
       281        57  DCM       C              -8.8491649578        8.0269688691        3.8776219505  CLST      57              1.0000000000
       282        57  DCM       H1             -9.0649306681        7.5797562030        4.8696068670  CLST      57              1.0000000000
       283        57  DCM       H2             -8.4932527113        7.2567392970        3.1605093139  CLST      57              1.0000000000
       284        57  DCM       CL1           -10.3448276790        8.7711560692        3.2428134805  CLST      57              1.0000000000
       285        57  DCM       CL2            -7.5840943709        9.2749154022        4.0673196247  CLST      57              1.0000000000
       286        58  DCM       C               5.6488815794       -9.0809874148      -10.0339604057  CLST      58              1.0000000000
       287        58  DCM       H1              5.0260854601       -9.4776937361       -9.2027333312  CLST      58              1.0000000000
       288        58  DCM       H2              5.3571606635       -9.5415340040      -11.0009787885  CLST      58              1.0000000000
       289        58  DCM       CL1             5.4267264042       -7.3107769609      -10.1411728781  CLST      58              1.0000000000
       290        58  DCM       CL2             7.3639829366       -9.4551877570       -9.7014281174  CLST      58              1.0000000000
       291        59  DCM       C              -7.7486710972      -10.0675535528       -8.8554458906  CLST      59              1.0000000000
       292        59  DCM       H1             -7.1809436245       -9.2728785840       -9.3843628968  CLST      59              1.0000000000
       293        59  DCM       H2             -8.8143043726      -10.0722240740       -9.1679887492  CLST      59              1.0000000000
       294        59  DCM       CL1            -7.0214364527      -11.6542526271       -9.2401926255  CLST      59              1.0000000000
       295        59  DCM       CL2            -7.6606499071       -9.7736339811       -7.0944100536  CLST      59              1.0000000000
       296        60  DCM       C              -3.9724102185      -13.0194952134      -11.2015840361  CLST      60              1.0000000000
       297        60  DCM       H1             -5.0717520062      -12.8648636462      -11.1852471675  CLST      60              1.0000000000
       298        60  DCM       H2             -3.4708645788      -12.2496160944      -11.8252184340  CLST      60              1.0000000000
       299        60  DCM       CL1            -3.3448237184      -12.9128261058       -9.5317501575  CLST      60              1.0000000000
       300        60  DCM       CL2            -3.6222904890      -14.6372882120      -11.8763523145  CLST      60              1.0000000000
       301        61  DCM       C               3.5719348840       -6.4917603195       -7.2378875839  CLST      61              1.0000000000
       302        61  DCM       H1              2.9244083994       -6.3170993017       -8.1225894199  CLST      61              1.0000000000
       303        61  DCM       H2              4.5889249826       -6.0770050362       -7.3948757725  CLST      61              1.0000000000
       304        61  DCM       CL1             3.7084297884       -8.2449394680       -6.9457073618  CLST      61              1.0000000000
       305        61  DCM       CL2             2.8429514958       -5.7059212881       -5.8144313509  CLST      61              1.0000000000
       306        62  DCM       C              -6.2274188547        5.2042084326       12.7118192803  CLST      62              1.0000000000
       307        62  DCM       H1             -6.7480629525        5.8571297625       11.9812765478  CLST      62              1.0000000000
       308        62  DCM       H2             -6.8927419240        4.9540473638       13.5650535363  CLST      62              1.0000000000
       309        62  DCM       CL1            -5.7353129619        3.6954922440       11.8894338354  CLST      62              1.0000000000
       310        62  DCM       CL2            -4.7847147400        6.0610642366       13.3282989568  CLST      62              1.0000000000
       311        63  DCM       C               8.6476237573       -5.8529736557        6.5199789557  CLST      63              1.0000000000
       312        63  DCM       H1              8.8220229785       -5.8198272699        5.4235337434  CLST      63              1.0000000000
       313        63  DCM       H2              9.4710869035       -5.3498561978        7.0691774650  CLST      63              1.0000000000
       314        63  DCM       CL1             7.1099762369       -5.0234801963        6.8898635628  CLST      63              1.0000000000
       315        63  DCM       CL2             8.5490012003       -7.5578144979        7.0469485282  CLST      63              1.0000000000
       316        64  DCM       C              -8.2406162401       -6.7322939214       10.7753393056  CLST      64              1.0000000000
       317        64  DCM       H1             -9.1358317362       -7.0452025111       11.3534651302  CLST      64              1.0000000000
       318        64  DCM       H2             -8.2814835903       -7.1186277570        9.7349730068  CLST      64              1.0000000000
       319        64  DCM       CL1            -8.1691567791       -4.9459377700       10.7349671852  CLST      64              1.0000000000
       320        64  DCM       CL2            -6.7777719649       -7.3763301852       11.5766373560  CLST      64              1.0000000000
       321        65  DCM       C              -3.9999039037       -9.3507893299       -8.8044211561  CLST      65              1.0000000000
       322        65  DCM       H1             -4.5024916027      -10.2177398784       -8.3258449234  CLST      65              1.0000000000
       323        65  DCM       H2             -2.9158163725       -9.3424628124       -8.5663337074  CLST      65              1.0000000000
       324        65  DCM       CL1            -4.2060814494       -9.4524329730      -10.5768164334  CLST      65              1.0000000000
       325        65  DCM       CL2            -4.7406371436       -7.8422992430       -8.2002648016  CLST      65              1.0000000000
       326        66  DCM       C              10.0194231792       -0.5605650158       -7.5254759489  CLST      66              1.0000000000
       327        66  DCM       H1             10.4885396844       -0.9131080919       -6.5827864317  CLST      66              1.0000000000
       328        66  DCM       H2             10.4610671088        0.4042578146       -7.8532220319  CLST      66              1.0000000000
       329        66  DCM       CL1            10.2807694548       -1.7868443580       -8.7988173752  CLST      66              1.0000000000
       330        66  DCM       CL2             8.2674260400       -0.3393163661       -7.2559992202  CLST      66              1.0000000000
       331        67  DCM       C               0.7371061620       -3.6762852378        4.7047378799  CLST      67              1.0000000000
       332        67  DCM       H1              0.5701339534       -4.2298813190        3.7571764927  CLST      67              1.0000000000
       333        67  DCM       H2             -0.0973382219       -3.8483612109        5.4168768594  CLST      67              1.0000000000
       334        67  DCM       CL1             2.2607272051       -4.2431937254        5.4417519182  CLST      67              1.0000000000
       335        67  DCM       CL2             0.8438707666       -1.9293280871        4.3468139751  CLST      67              1.0000000000
       336        68  DCM       C              -6.5147322179       -1.5153910231        5.7965249825  CLST      68              1.0000000000
       337        68  DCM       H1             -7.5634677864       -1.3505611216        6.1233525255  CLST      68              1.0000000000
       338        68  DCM       H2             -6.4325025610       -1.4802208269        4.6897005465  CLST      68              1.0000000000
       339        68  DCM       CL1            -5.4807134571       -0.2434960053        6.5001366997  CLST      68              1.0000000000
       340        68  DCM       CL2            -5.9627558922       -3.1109053864        6.3771622381  CLST      68              1.0000000000
       341        69  DCM       C               7.3189862368        2.7820121449       -8.8904108273  CLST      69              1.0000000000
       342        69  DCM       H1              6.8761449056        3.6235601561       -9.4649651157  CLST      69              1.0000000000
       343        69  DCM       H2              6.9756969973        1.8053481634       -9.2905988240  CLST      69              1.0000000000
       344        69  DCM       CL1             6.8202496130        2.9147856736       -7.1797927005  CLST      69              1.0000000000
       345        69  DCM       CL2             9.1005528536        2.8679209032       -9.0074578713  CLST      69              1.0000000000
       346        70  DCM       C               2.6199524693       -7.9327272909        6.3887185268  CLST      70              1.0000000000
       347        70  DCM       H1              2.6900129097       -9.0317090232        6.5342149842  CLST      70              1.0000000000
       348        70  DCM       H2              2.1786849867       -7.6862864218        5.4005615577  CLST      70              1.0000000000
       349        70  DCM       CL1             1.5950158785       -7.2359877495        7.6758623056  CLST      70              1.0000000000
       350        70  DCM       CL2             4.2607793901       -7.2337459781        6.4824982568  CLST      70              1.0000000000
       351        71  DCM       C               7.9621839320        0.5838360089       -1.2478317241  CLST      71              1.0000000000
       352        71  DCM       H1              7.8211998186        1.3168301168       -2.0685700053  CLST      71              1.0000000000
       353        71  DCM       H2              7.8813665802       -0.4568498793       -1.6216802362  CLST      71              1.0000000000
       354        71  DCM       CL1             6.7042659174        0.8499528810       -0.0072855968  CLST      71              1.0000000000
       355        71  DCM       CL2             9.5829889556        0.8183816960       -0.5339100031  CLST      71              1.0000000000
       356        72  DCM       C               8.1005901490       -1.6490258747        8.2757990651  CLST      72              1.0000000000
       357        72  DCM       H1              7.2787982092       -2.3591018548        8.0508164638  CLST      72              1.0000000000
       358        72  DCM       H2              8.2719391046       -1.5755272394        9.3705013140  CLST      72              1.0000000000
       359        72  DCM       CL1             9.5969915309       -2.2192244590        7.4823455321  CLST      72              1.0000000000
       360        72  DCM       CL2             7.6605336019       -0.0376652396        7.6450722933  CLST      72              1.0000000000
       361        73  DCM       C               0.8934802516        9.3830249933        7.7735799972  CLST      73              1.0000000000
       362        73  DCM       H1              0.0197394453        8.8106786877        8.1475220972  CLST      73              1.0000000000
       363        73  DCM       H2              0.6008027271       10.4152078403        7.4870435263  CLST      73              1.0000000000
       364        73  DCM       CL1             2.1249710037        9.4609910537        9.0666443150  CLST      73              1.0000000000
       365        73  DCM       CL2             1.5632885277        8.5456588260        6.3432189476  CLST      73              1.0000000000
       366        74  DCM       C               8.9788514221        3.6678451599       -4.3087332178  CLST      74              1.0000000000
       367        74  DCM       H1              9.5900259964        4.3945496975       -4.8843941729  CLST      74              1.0000000000
       368        74  DCM       H2              7.9029639228        3.7588085531       -4.5676387502  CLST      74              1.0000000000
       369        74  DCM       CL1             9.5349602247        2.0117081119       -4.6886385753  CLST      74              1.0000000000
       370        74  DCM       CL2             9.1798153873        3.9885573907       -2.5619914084  CLST      74              1.0000000000
       371        75  DCM       C               3.7109495598       -1.0542613786        1.5688076920  CLST      75              1.0000000000
       372        75  DCM       H1              4.3992529875       -0.1938805455        1.7046235047  CLST      75              1.0000000000
       373        75  DCM       H2              2.6548026985       -0.7491882086        1.7228017407  CLST      75              1.0000000000
       374        75  DCM       CL1             3.8959612520       -1.6930928430       -0.0886473711  CLST      75              1.0000000000
       375        75  DCM       CL2             4.1240658882       -2.3290359788        2.7489161436  CLST      75              1.0000000000
       376        76  DCM       C              -5.0082836389        7.1105580446        8.3261711488  CLST      76              1.0000000000
       377        76  DCM       H1             -3.9005507665        7.1795931071        8.3221513316  CLST      76              1.0000000000
       378        76  DCM       H2             -5.3452301720        6.0692318761        8.1375174554  CLST      76              1.0000000000
       379        76  DCM       CL1            -5.6614992033        8.1842723894        7.0557033153  CLST      76              1.0000000000
       380        76  DCM       CL2            -5.6083966407        7.6336687721        9.9239082248  CLST      76              1.0000000000
       381        77  DCM       C               3.5175886030        0.1748483749       -9.5004312560  CLST      77              1.0000000000
       382        77  DCM       H1              2.5507599188        0.4701713599       -9.0391083036  CLST      77              1.0000000000
       383        77  DCM       H2              3.4444185520       -0.8254625643       -9.9751802748  CLST      77              1.0000000000
       384        77  DCM       CL1             3.9704105648        1.3814773983      -10.7382051287  CLST      77              1.0000000000
       385        77  DCM       CL2             4.7719956642        0.1218119356       -8.2323045455  CLST      77              1.0000000000
       386        78  DCM       C              10.6843045525       -4.5302550463       -2.2068902901  CLST      78              1.0000000000
       387        78  DCM       H1             10.2384659287       -3.5720014233       -1.8689113086  CLST      78              1.0000000000
       388        78  DCM       H2             11.2354991722       -4.3977036241       -3.1617787403  CLST      78              1.0000000000
       389        78  DCM       CL1            11.8134954384       -5.1163749248       -0.9519876750  CLST      78              1.0000000000
       390        78  DCM       CL2             9.3769441514       -5.7230293365       -2.4497078879  CLST      78              1.0000000000
       391        79  DCM       C               0.4533354079       -6.3957077069       -2.5853136062  CLST      79              1.0000000000
       392        79  DCM       H1              1.5310759732       -6.1289551209       -2.5882473336  CLST      79              1.0000000000
       393        79  DCM       H2             -0.0324531684       -6.0977587001       -1.6324325260  CLST      79              1.0000000000
       394        79  DCM       CL1             0.2871508753       -8.1608522054       -2.7951672677  CLST      79              1.0000000000
       395        79  DCM       CL2            -0.3585461031       -5.5534451110       -3.9321609019  CLST      79              1.0000000000
       396        80  DCM       C               2.2144871486       -2.8552411784       -3.6409766167  CLST      80              1.0000000000
       397        80  DCM       H1              2.6723639539       -1.9036910573       -3.9771565686  CLST      80              1.0000000000
       398        80  DCM       H2              1.7517956839       -3.3948401355       -4.4944145092  CLST      80              1.0000000000
       399        80  DCM       CL1             3.4830979147       -3.8768374862       -2.9090003028  CLST      80              1.0000000000
       400        80  DCM       CL2             0.9552643538       -2.5014346205       -2.4268574768  CLST      80              1.0000000000
       401        81  DCM       C               0.0671466232        5.3940486396        7.8141433689  CLST      81              1.0000000000
       402        81  DCM       H1              0.8917881773        5.4676243566        7.0745910152  CLST      81              1.0000000000
       403        81  DCM       H2             -0.2503474702        4.3388284385        7.9556815313  CLST      81              1.0000000000
       404        81  DCM       CL1             0.6318216860        6.0417159563        9.3816303826  CLST      81              1.0000000000
       405        81  DCM       CL2            -1.3254073789        6.3499791830        7.2274957152  CLST      81              1.0000000000
       406        82  DCM       C               8.4771363461       12.2400209574       -4.9759757792  CLST      82              1.0000000000
       407        82  DCM       H1              7.8604576484       13.1269161596       -4.7181258158  CLST      82              1.0000000000
       408        82  DCM       H2              8.9902330147       11.8341995847       -4.0786560351  CLST      82              1.0000000000
       409        82  DCM       CL1             7.4167188055       10.9738036709       -5.6614475724  CLST      82              1.0000000000
       410        82  DCM       CL2             9.7077872590       12.7192346043       -6.1814863029  CLST      82              1.0000000000
       411        83  DCM       C               5.9842157599       -7.7306446003        9.7398891614  CLST      83              1.0000000000
       412        83  DCM       H1              6.6689257462       -8.5781294878        9.5245316945  CLST      83              1.0000000000
       413        83  DCM       H2              5.9863169411       -6.9976583476        8.9060057386  CLST      83              1.0000000000
       414        83  DCM       CL1             4.3270474389       -8.3634024884        9.9562776700  CLST      83              1.0000000000
       415        83  DCM       CL2             6.5160502078       -6.9130563524       11.2373075748  CLST      83              1.0000000000
       416        84  DCM       C              -8.7132225665        6.2177496721        8.0455646070  CLST      84              1.0000000000
       417        84  DCM       H1             -8.2472553462        7.2151724434        8.1897854883  CLST      84              1.0000000000
       418        84  DCM       H2             -9.8138796135        6.3053391753        7.9264663190  CLST      84              1.0000000000
       419        84  DCM       CL1            -8.3614243642        5.2039239184        9.4740982506  CLST      84              1.0000000000
       420        84  DCM       CL2            -8.0269102231        5.4597786373        6.5788719320  CLST      84              1.0000000000
       421        85  DCM       C              -5.9643079980        6.5079761161       -5.5331309140  CLST      85              1.0000000000
       422        85  DCM       H1             -6.0052842590        7.6177240791       -5.5102583934  CLST      85              1.0000000000
       423        85  DCM       H2             -6.8304281077        6.0880766127       -6.0869959816  CLST      85              1.0000000000
       424        85  DCM       CL1            -4.4542799491        6.0012749660       -6.3430495984  CLST      85              1.0000000000
       425        85  DCM       CL2            -5.9924121148        5.8876893706       -3.8570507720  CLST      85              1.0000000000
       426        86  DCM       C               2.7221390976       -9.0253368852        0.3693803620  CLST      86              1.0000000000
       427        86  DCM       H1              2.2693627662       -8.6411765521        1.3078235673  CLST      86              1.0000000000
       428        86  DCM       H2              2.7962246906       -8.2269794263       -0.3958483729  CLST      86              1.0000000000
       429        86  DCM       CL1             4.3587612995       -9.6477300148        0.7277358073  CLST      86              1.0000000000
       430        86  DCM       CL2             1.7010209104      -10.3476624766       -0.2661582503  CLST      86              1.0000000000
       431        87  DCM       C              -4.4148114134        2.2497724858       -6.3785702260  CLST      87              1.0000000000
       432        87  DCM       H1             -3.8616956235        3.2013893617       -6.5193706285  CLST      87              1.0000000000
       433        87  DCM       H2             -3.9118095014        1.6114395026       -5.6244910339  CLST      87              1.0000000000
       434        87  DCM       CL1            -6.0721163363        2.6017434056       -5.8102460315  CLST      87              1.0000000000
       435        87  DCM       CL2            -4.4714555460        1.3793447554       -7.9388379179  CLST      87              1.0000000000
       436        88  DCM       C               4.9338180982        7.2288293862        7.6556350487  CLST      88              1.0000000000
       437        88  DCM       H1              5.6471903115        7.0569092552        6.8186698155  CLST      88              1.0000000000
       438        88  DCM       H2              4.3173641184        8.1306868273        7.4754140414  CLST      88              1.0000000000
       439        88  DCM       CL1             3.8634422968        5.8045070277        7.8113146346  CLST      88              1.0000000000
       440        88  DCM       CL2             5.8589582289        7.4597053776        9.1666724538  CLST      88              1.0000000000
       441        89  DCM       C              -4.5105354353       -2.2832336794       -9.2340835768  CLST      89              1.0000000000
       442        89  DCM       H1             -5.1590875074       -1.4295108403       -8.9470862341  CLST      89              1.0000000000
       443        89  DCM       H2             -4.3527322055       -2.3124904094      -10.3328572806  CLST      89              1.0000000000
       444        89  DCM       CL1            -2.9294510907       -2.1092514380       -8.4206779097  CLST      89              1.0000000000
       445        89  DCM       CL2            -5.2911694525       -3.8052042031       -8.7185795043  CLST      89              1.0000000000
       446        90  DCM       C               3.9883296122       -0.5450389765        6.0406383776  CLST      90              1.0000000000
       447        90  DCM       H1              4.4520525299        0.0443328345        5.2225367387  CLST      90              1.0000000000
       448        90  DCM       H2              2.9458082543       -0.8260864289        5.7905525903  CLST      90              1.0000000000
       449        90  DCM       CL1             4.9396692748       -2.0348357122        6.2993650369  CLST      90              1.0000000000
       450        90  DCM       CL2             3.9726910024        0.4363505969        7.5328113098  CLST      90              1.0000000000
       451        91  DCM       C               5.9129932145       -3.4024543393       -7.7543630897  CLST      91              1.0000000000
       452        91  DCM       H1              6.6432464803       -2.6141259692       -8.0312754039  CLST      91              1.0000000000
       453        91  DCM       H2              6.4306497798       -4.3521040097       -7.5024334078  CLST      91              1.0000000000
       454        91  DCM       CL1             4.9743095623       -2.8569746456       -6.3343609847  CLST      91              1.0000000000
       455        91  DCM       CL2             4.8145771654       -3.6818292962       -9.1366466870  CLST      91              1.0000000000
       456        92  DCM       C               6.2433370409      -10.1475917626        5.3036434861  CLST      92              1.0000000000
       457        92  DCM       H1              6.7553405107       -9.1672430460        5.2152803197  CLST      92              1.0000000000
       458        92  DCM       H2              6.8928950084      -10.9714270246        4.9407058322  CLST      92              1.0000000000
       459        92  DCM       CL1             5.8390624930      -10.4353074955        7.0218900983  CLST      92              1.0000000000
       460        92  DCM       CL2             4.7476517512      -10.1112115083        4.3245770488  CLST      92              1.0000000000
