* CHARMM CGENFF SD/ABNR BEFORE MLPOT (MM ONLY)
*  DATE:     6/28/26      2: 4:16      CREATED BY USER: boittier
*
       490  EXT
         1         1  DCM       C               7.2118821572       -7.8204472285        7.4924919656  CLST      1               1.0000000000
         2         1  DCM       H1              6.7646235812       -6.8064286908        7.4203507828  CLST      1               1.0000000000
         3         1  DCM       H2              7.7787965363       -7.9390511071        8.4399577729  CLST      1               1.0000000000
         4         1  DCM       CL1             8.3246953025       -8.0663436245        6.1163789820  CLST      1               1.0000000000
         5         1  DCM       CL2             5.9042578602       -9.0376202558        7.4420707281  CLST      1               1.0000000000
         6         2  DCM       C               1.8949437212        6.9442322305        3.2101552539  CLST      2               1.0000000000
         7         2  DCM       H1              0.8425123694        7.0844635683        3.5301066438  CLST      2               1.0000000000
         8         2  DCM       H2              1.9505209699        6.3781100190        2.2578252200  CLST      2               1.0000000000
         9         2  DCM       CL1             2.6480338505        8.5469194214        2.9732816311  CLST      2               1.0000000000
        10         2  DCM       CL2             2.7685023997        6.0422332692        4.4820353450  CLST      2               1.0000000000
        11         3  DCM       C               0.7321555854       -1.7192170974        8.9954676057  CLST      3               1.0000000000
        12         3  DCM       H1              0.9340314712       -2.5371520211        8.2733474042  CLST      3               1.0000000000
        13         3  DCM       H2             -0.3384324938       -1.7052073266        9.2910484142  CLST      3               1.0000000000
        14         3  DCM       CL1             1.7364749215       -1.9765173423       10.4498888848  CLST      3               1.0000000000
        15         3  DCM       CL2             1.1489434606       -0.1545637385        8.2382213052  CLST      3               1.0000000000
        16         4  DCM       C               0.6364624414       -0.9613692759       -2.8548849910  CLST      4               1.0000000000
        17         4  DCM       H1              1.5719099875       -0.9505409611       -2.2566621874  CLST      4               1.0000000000
        18         4  DCM       H2              0.1459638092        0.0346487327       -2.8461462953  CLST      4               1.0000000000
        19         4  DCM       CL1             1.0177932328       -1.4117388143       -4.5403686553  CLST      4               1.0000000000
        20         4  DCM       CL2            -0.4809247657       -2.1643144744       -2.1564013287  CLST      4               1.0000000000
        21         5  DCM       C               0.4181838314        6.1872529311       -3.7897832297  CLST      5               1.0000000000
        22         5  DCM       H1              0.5730281708        5.1002497285       -3.9554232385  CLST      5               1.0000000000
        23         5  DCM       H2             -0.0487107581        6.3787735577       -2.8019890793  CLST      5               1.0000000000
        24         5  DCM       CL1             2.0017220867        7.0104199132       -3.8526448964  CLST      5               1.0000000000
        25         5  DCM       CL2            -0.6514179562        6.8275640534       -5.0704710460  CLST      5               1.0000000000
        26         6  DCM       C               9.3682395972        4.9653279482       -1.9211265746  CLST      6               1.0000000000
        27         6  DCM       H1              9.7424420585        4.4344478905       -1.0206565871  CLST      6               1.0000000000
        28         6  DCM       H2             10.1912761854        5.4988201113       -2.4411202992  CLST      6               1.0000000000
        29         6  DCM       CL1             8.6520096998        3.7718218657       -3.0406434978  CLST      6               1.0000000000
        30         6  DCM       CL2             8.1279018403        6.1507748341       -1.4207318189  CLST      6               1.0000000000
        31         7  DCM       C              -5.5223991838        3.8818453839        3.7301221416  CLST      7               1.0000000000
        32         7  DCM       H1             -5.9782773178        3.2971055195        4.5571276449  CLST      7               1.0000000000
        33         7  DCM       H2             -4.9171652783        3.2295850870        3.0670435671  CLST      7               1.0000000000
        34         7  DCM       CL1            -6.8201795200        4.6472837846        2.7696028996  CLST      7               1.0000000000
        35         7  DCM       CL2            -4.4625651575        5.1416785716        4.4226643316  CLST      7               1.0000000000
        36         8  DCM       C              -5.2398093653       -7.6626613181        8.8802841930  CLST      8               1.0000000000
        37         8  DCM       H1             -6.2804037122       -7.3766018815        8.6215489411  CLST      8               1.0000000000
        38         8  DCM       H2             -4.6542797455       -6.7753988964        9.1943581304  CLST      8               1.0000000000
        39         8  DCM       CL1            -5.2715387556       -8.8338891459       10.2281105229  CLST      8               1.0000000000
        40         8  DCM       CL2            -4.4590592613       -8.3990962370        7.4512058809  CLST      8               1.0000000000
        41         9  DCM       C              -1.7032985343       -7.3214805082        9.6440856818  CLST      9               1.0000000000
        42         9  DCM       H1             -2.4958206942       -7.4004192481       10.4168765042  CLST      9               1.0000000000
        43         9  DCM       H2             -2.0911349769       -6.8467777018        8.7194490068  CLST      9               1.0000000000
        44         9  DCM       CL1            -0.3573947831       -6.3366651286       10.2880245244  CLST      9               1.0000000000
        45         9  DCM       CL2            -1.1260948495       -8.9639855764        9.2449967907  CLST      9               1.0000000000
        46        10  DCM       C              12.5099124572        3.9408386362       -6.3035562229  CLST      10              1.0000000000
        47        10  DCM       H1             12.9088153721        4.4628049831       -7.1986887391  CLST      10              1.0000000000
        48        10  DCM       H2             13.3233848560        3.7002399672       -5.5865533112  CLST      10              1.0000000000
        49        10  DCM       CL1            11.3152490366        4.9972455890       -5.4967713400  CLST      10              1.0000000000
        50        10  DCM       CL2            11.7221425933        2.4220637234       -6.8203874885  CLST      10              1.0000000000
        51        11  DCM       C               6.3721853511       -0.3999273510        1.9876892324  CLST      11              1.0000000000
        52        11  DCM       H1              6.8858629713       -1.3382283605        1.6922588156  CLST      11              1.0000000000
        53        11  DCM       H2              6.3786163799        0.3330642012        1.1554542623  CLST      11              1.0000000000
        54        11  DCM       CL1             4.6822643682       -0.7742880019        2.4291659773  CLST      11              1.0000000000
        55        11  DCM       CL2             7.2173942193        0.3029210084        3.3933759841  CLST      11              1.0000000000
        56        12  DCM       C              12.5955686136       10.4180707067      -10.8899187291  CLST      12              1.0000000000
        57        12  DCM       H1             11.8635261139        9.9721802269      -10.1848938989  CLST      12              1.0000000000
        58        12  DCM       H2             13.1475780400       11.2554642201      -10.4134401515  CLST      12              1.0000000000
        59        12  DCM       CL1            13.7599453039        9.1570939672      -11.3904316124  CLST      12              1.0000000000
        60        12  DCM       CL2            11.7169014539       11.0362829249      -12.3191440630  CLST      12              1.0000000000
        61        13  DCM       C               1.5668379517       -5.8300819154       -5.8967824017  CLST      13              1.0000000000
        62        13  DCM       H1              2.0824583710       -6.5870970089       -5.2690164414  CLST      13              1.0000000000
        63        13  DCM       H2              1.0426636330       -6.3090633771       -6.7505581201  CLST      13              1.0000000000
        64        13  DCM       CL1             0.3733768530       -4.9552210513       -4.8967618612  CLST      13              1.0000000000
        65        13  DCM       CL2             2.7766086772       -4.6785509883       -6.5295647032  CLST      13              1.0000000000
        66        14  DCM       C              -1.3072122854       -7.2925561460       -2.5075309477  CLST      14              1.0000000000
        67        14  DCM       H1             -2.2844205509       -7.6286940460       -2.1029366656  CLST      14              1.0000000000
        68        14  DCM       H2             -1.3843527524       -7.0607728786       -3.5913849424  CLST      14              1.0000000000
        69        14  DCM       CL1            -0.7921168830       -5.8240410800       -1.6332109372  CLST      14              1.0000000000
        70        14  DCM       CL2            -0.0938419716       -8.5832841443       -2.2726587932  CLST      14              1.0000000000
        71        15  DCM       C              -6.0976336824       -0.6836539062        7.5144172224  CLST      15              1.0000000000
        72        15  DCM       H1             -5.2264917876       -0.0289842050        7.7233971310  CLST      15              1.0000000000
        73        15  DCM       H2             -7.0397612639       -0.0966685184        7.4793128638  CLST      15              1.0000000000
        74        15  DCM       CL1            -5.8627417282       -1.4932107828        5.9419629319  CLST      15              1.0000000000
        75        15  DCM       CL2            -6.2164144753       -1.9126701708        8.8022867794  CLST      15              1.0000000000
        76        16  DCM       C             -11.1831474441       -5.5152286044        8.5988320727  CLST      16              1.0000000000
        77        16  DCM       H1            -10.2926542194       -6.1770473225        8.6497578260  CLST      16              1.0000000000
        78        16  DCM       H2            -12.0875879737       -6.0347929583        8.9782740838  CLST      16              1.0000000000
        79        16  DCM       CL1           -10.8834722834       -4.0607399191        9.5938607677  CLST      16              1.0000000000
        80        16  DCM       CL2           -11.4553280440       -5.0375961731        6.8982540028  CLST      16              1.0000000000
        81        17  DCM       C              10.3383686478        1.0237994208        1.0853087739  CLST      17              1.0000000000
        82        17  DCM       H1              9.6400243866        1.0792331380        1.9458201040  CLST      17              1.0000000000
        83        17  DCM       H2             11.1276304051        0.2627169994        1.2618436255  CLST      17              1.0000000000
        84        17  DCM       CL1             9.4151650038        0.5813530196       -0.3793390426  CLST      17              1.0000000000
        85        17  DCM       CL2            11.1065568511        2.6213955522        0.8605014276  CLST      17              1.0000000000
        86        18  DCM       C              -7.6584506080       -6.1067650921        5.9783040252  CLST      18              1.0000000000
        87        18  DCM       H1             -6.8074363175       -6.8066687319        6.1151321094  CLST      18              1.0000000000
        88        18  DCM       H2             -8.6155158181       -6.6576628052        5.8571766198  CLST      18              1.0000000000
        89        18  DCM       CL1            -7.7739897124       -5.0413098218        7.4079253767  CLST      18              1.0000000000
        90        18  DCM       CL2            -7.3606574381       -5.1236594985        4.5185954417  CLST      18              1.0000000000
        91        19  DCM       C              -2.9006674625       -3.8143454817       -4.1132023990  CLST      19              1.0000000000
        92        19  DCM       H1             -2.2731159238       -4.0678431680       -3.2370784438  CLST      19              1.0000000000
        93        19  DCM       H2             -2.2978438088       -3.3318654285       -4.9117339894  CLST      19              1.0000000000
        94        19  DCM       CL1            -3.6290218358       -5.3168611930       -4.7477417397  CLST      19              1.0000000000
        95        19  DCM       CL2            -4.1781450911       -2.6861732215       -3.5845814429  CLST      19              1.0000000000
        96        20  DCM       C              -4.7878154058       -4.1783706109       -0.3112226906  CLST      20              1.0000000000
        97        20  DCM       H1             -5.5135177534       -3.5031317016       -0.8099226498  CLST      20              1.0000000000
        98        20  DCM       H2             -5.1325597338       -4.4511063490        0.7084147473  CLST      20              1.0000000000
        99        20  DCM       CL1            -4.6075487181       -5.6658178365       -1.2849071975  CLST      20              1.0000000000
       100        20  DCM       CL2            -3.2140278101       -3.3469174822       -0.1864410390  CLST      20              1.0000000000
       101        21  DCM       C              -9.7624218094       -2.8926002407       -7.1203351484  CLST      21              1.0000000000
       102        21  DCM       H1             -9.4256313854       -3.9200480602       -6.8647701044  CLST      21              1.0000000000
       103        21  DCM       H2            -10.5902363755       -2.9166602209       -7.8595419856  CLST      21              1.0000000000
       104        21  DCM       CL1            -8.3894350524       -1.9856320569       -7.8172547608  CLST      21              1.0000000000
       105        21  DCM       CL2           -10.3320843176       -2.0779786324       -5.6346880288  CLST      21              1.0000000000
       106        22  DCM       C              -2.2777696558        8.1240632781        4.3459304128  CLST      22              1.0000000000
       107        22  DCM       H1             -3.3553692582        7.9368585912        4.5331427908  CLST      22              1.0000000000
       108        22  DCM       H2             -2.0360887002        9.2008372578        4.4733281115  CLST      22              1.0000000000
       109        22  DCM       CL1            -1.3097657454        7.1666701514        5.5044382198  CLST      22              1.0000000000
       110        22  DCM       CL2            -1.8796162910        7.6352533309        2.6746280831  CLST      22              1.0000000000
       111        23  DCM       C               1.4345081407        9.5306799233        6.3594888417  CLST      23              1.0000000000
       112        23  DCM       H1              1.6019308602        8.5205375363        5.9324986010  CLST      23              1.0000000000
       113        23  DCM       H2              2.3993926998       10.0427778631        6.5646748845  CLST      23              1.0000000000
       114        23  DCM       CL1             0.4952298173       10.5092695691        5.1948342813  CLST      23              1.0000000000
       115        23  DCM       CL2             0.5225794739        9.3698108049        7.8885687173  CLST      23              1.0000000000
       116        24  DCM       C              12.8028324126       -8.9849717989       -9.3314008849  CLST      24              1.0000000000
       117        24  DCM       H1             12.5832174753       -8.0685806053       -9.9191233480  CLST      24              1.0000000000
       118        24  DCM       H2             13.8907224561       -9.0801668581       -9.1293413967  CLST      24              1.0000000000
       119        24  DCM       CL1            11.9277939101       -8.8999090657       -7.7744182485  CLST      24              1.0000000000
       120        24  DCM       CL2            12.2568578368      -10.4139087988      -10.2572196632  CLST      24              1.0000000000
       121        25  DCM       C               5.5660082656       -1.6394457565       10.5656877573  CLST      25              1.0000000000
       122        25  DCM       H1              4.7907810766       -2.3483751427       10.2085988762  CLST      25              1.0000000000
       123        25  DCM       H2              5.3632847062       -1.3216730398       11.6102338974  CLST      25              1.0000000000
       124        25  DCM       CL1             7.1594218555       -2.4451037649       10.5009031697  CLST      25              1.0000000000
       125        25  DCM       CL2             5.5734183447       -0.1990625608        9.5060450532  CLST      25              1.0000000000
       126        26  DCM       C              -9.0936492747        4.3668474957      -10.2775066619  CLST      26              1.0000000000
       127        26  DCM       H1             -8.4383170834        3.6422857888      -10.8032803653  CLST      26              1.0000000000
       128        26  DCM       H2             -9.5389501014        5.0953580120      -10.9896485451  CLST      26              1.0000000000
       129        26  DCM       CL1           -10.4105389901        3.4742152306       -9.4625073682  CLST      26              1.0000000000
       130        26  DCM       CL2            -8.1243328057        5.2571238485       -9.0681837001  CLST      26              1.0000000000
       131        27  DCM       C               0.4312330966       -0.2480773301       -7.9662948516  CLST      27              1.0000000000
       132        27  DCM       H1              0.5022561649        0.1931894493       -6.9505215925  CLST      27              1.0000000000
       133        27  DCM       H2             -0.5675234408       -0.7031534142       -8.1349036853  CLST      27              1.0000000000
       134        27  DCM       CL1             0.6964127339        1.0407123108       -9.1745045502  CLST      27              1.0000000000
       135        27  DCM       CL2             1.6868482791       -1.5081860449       -8.1396662090  CLST      27              1.0000000000
       136        28  DCM       C               4.1494151459        3.9424349868       -3.9820147031  CLST      28              1.0000000000
       137        28  DCM       H1              4.7871581690        3.0894595227       -4.2940916421  CLST      28              1.0000000000
       138        28  DCM       H2              3.6284067298        4.3917374483       -4.8523036316  CLST      28              1.0000000000
       139        28  DCM       CL1             2.9313809748        3.3557165371       -2.8170180175  CLST      28              1.0000000000
       140        28  DCM       CL2             5.1793479417        5.1809057520       -3.2101597033  CLST      28              1.0000000000
       141        29  DCM       C               8.3721233016        7.6184096127       -5.1154248348  CLST      29              1.0000000000
       142        29  DCM       H1              7.5119684303        7.4382937850       -4.4351338953  CLST      29              1.0000000000
       143        29  DCM       H2              8.5896503463        6.7190472517       -5.7281134726  CLST      29              1.0000000000
       144        29  DCM       CL1             7.9848071146        8.9824794298       -6.2039296198  CLST      29              1.0000000000
       145        29  DCM       CL2             9.8161352361        8.0191778170       -4.1421539274  CLST      29              1.0000000000
       146        30  DCM       C               8.3805241790       -1.0590371803        6.7371614751  CLST      30              1.0000000000
       147        30  DCM       H1              7.8550558269       -0.2141551179        6.2477103312  CLST      30              1.0000000000
       148        30  DCM       H2              7.6661114150       -1.8614962832        7.0193887249  CLST      30              1.0000000000
       149        30  DCM       CL1             9.1967599724       -0.4628902088        8.2098952654  CLST      30              1.0000000000
       150        30  DCM       CL2             9.5927733766       -1.7257192894        5.6065447646  CLST      30              1.0000000000
       151        31  DCM       C              -1.0141954472       -3.9129201850       -8.0452295351  CLST      31              1.0000000000
       152        31  DCM       H1              0.0899082457       -4.0240393700       -8.0105734339  CLST      31              1.0000000000
       153        31  DCM       H2             -1.3687857572       -3.2137649185       -7.2583846945  CLST      31              1.0000000000
       154        31  DCM       CL1            -1.4813470765       -3.2758133847       -9.6473543981  CLST      31              1.0000000000
       155        31  DCM       CL2            -1.7653696327       -5.5141781409       -7.7920247244  CLST      31              1.0000000000
       156        32  DCM       C               1.9760041098      -10.1663536737        3.2733533268  CLST      32              1.0000000000
       157        32  DCM       H1              1.1027854495      -10.8250473035        3.4655798742  CLST      32              1.0000000000
       158        32  DCM       H2              2.7607767832      -10.6989280398        2.6948440024  CLST      32              1.0000000000
       159        32  DCM       CL1             2.6645306663       -9.6458696392        4.8377630957  CLST      32              1.0000000000
       160        32  DCM       CL2             1.4349643666       -8.7380816759        2.3445114494  CLST      32              1.0000000000
       161        33  DCM       C               1.4755500757       -7.0481196592        7.2221033119  CLST      33              1.0000000000
       162        33  DCM       H1              1.7374724637       -7.2726973079        6.1680981973  CLST      33              1.0000000000
       163        33  DCM       H2              0.3903680772       -7.1913705527        7.4006994867  CLST      33              1.0000000000
       164        33  DCM       CL1             2.3877809639       -8.1478811010        8.2924410367  CLST      33              1.0000000000
       165        33  DCM       CL2             1.9018416804       -5.3500314285        7.5756116470  CLST      33              1.0000000000
       166        34  DCM       C               4.6119844844        7.1304678961        0.0933773093  CLST      34              1.0000000000
       167        34  DCM       H1              4.3494057517        8.1748411584        0.3617682619  CLST      34              1.0000000000
       168        34  DCM       H2              5.3680400744        7.1043515152       -0.7203453769  CLST      34              1.0000000000
       169        34  DCM       CL1             5.2749690569        6.3073818752        1.5349298430  CLST      34              1.0000000000
       170        34  DCM       CL2             3.1390304023        6.2865583471       -0.4609349006  CLST      34              1.0000000000
       171        35  DCM       C               6.1222000146       -9.4338543616        3.4776702788  CLST      35              1.0000000000
       172        35  DCM       H1              5.7336185096       -8.9712052012        4.4085876612  CLST      35              1.0000000000
       173        35  DCM       H2              7.1992938465       -9.2019743810        3.3377928370  CLST      35              1.0000000000
       174        35  DCM       CL1             5.9159730166      -11.2049110722        3.5868426406  CLST      35              1.0000000000
       175        35  DCM       CL2             5.2001156342       -8.8037481049        2.0819203044  CLST      35              1.0000000000
       176        36  DCM       C              -0.9070453096        4.0854032479        3.4901409695  CLST      36              1.0000000000
       177        36  DCM       H1             -0.1651169045        4.4477458631        2.7456280289  CLST      36              1.0000000000
       178        36  DCM       H2             -1.6802250605        4.8529840696        3.6853181355  CLST      36              1.0000000000
       179        36  DCM       CL1            -1.7011804891        2.6149451364        2.8641705293  CLST      36              1.0000000000
       180        36  DCM       CL2            -0.0567846384        3.7080293725        5.0135208682  CLST      36              1.0000000000
       181        37  DCM       C              -4.1112028425        6.3737622032       -3.3887553696  CLST      37              1.0000000000
       182        37  DCM       H1             -5.1530095949        6.2572397472       -3.0187266979  CLST      37              1.0000000000
       183        37  DCM       H2             -4.0583358151        7.1317303384       -4.1980841583  CLST      37              1.0000000000
       184        37  DCM       CL1            -3.0656016127        6.8958844637       -2.0379132121  CLST      37              1.0000000000
       185        37  DCM       CL2            -3.5366561467        4.8056651047       -4.0237993894  CLST      37              1.0000000000
       186        38  DCM       C              -6.2737881512       -8.2875807626        2.8056344992  CLST      38              1.0000000000
       187        38  DCM       H1             -6.2707127594       -9.2642948795        2.2758181069  CLST      38              1.0000000000
       188        38  DCM       H2             -7.1617225047       -8.1873479748        3.4601923397  CLST      38              1.0000000000
       189        38  DCM       CL1            -4.8059828410       -8.1630472633        3.8139856135  CLST      38              1.0000000000
       190        38  DCM       CL2            -6.2988738006       -6.9701225991        1.6012082378  CLST      38              1.0000000000
       191        39  DCM       C              -2.3334248434        0.7128728280        5.7308119349  CLST      39              1.0000000000
       192        39  DCM       H1             -1.3753651099        1.2582497382        5.8600352957  CLST      39              1.0000000000
       193        39  DCM       H2             -2.4490625494        0.3480815065        4.6889688708  CLST      39              1.0000000000
       194        39  DCM       CL1            -3.6861397814        1.8158793903        6.1104122538  CLST      39              1.0000000000
       195        39  DCM       CL2            -2.3484226987       -0.6871732967        6.8367752918  CLST      39              1.0000000000
       196        40  DCM       C             -10.5124493409        4.7610394881       -6.0736836735  CLST      40              1.0000000000
       197        40  DCM       H1             -9.4209927946        4.5698529247       -6.1438053653  CLST      40              1.0000000000
       198        40  DCM       H2            -11.0907315660        3.9667872834       -6.5902895191  CLST      40              1.0000000000
       199        40  DCM       CL1           -10.9879067273        4.7950616394       -4.3518705271  CLST      40              1.0000000000
       200        40  DCM       CL2           -10.8756843108        6.3354821492       -6.8377256525  CLST      40              1.0000000000
       201        41  DCM       C               5.8543485170        3.0459322018        0.0526729588  CLST      41              1.0000000000
       202        41  DCM       H1              5.4693968845        4.0034860658       -0.3560933724  CLST      41              1.0000000000
       203        41  DCM       H2              5.1564399633        2.6192002952        0.8016553140  CLST      41              1.0000000000
       204        41  DCM       CL1             7.4290022482        3.3312762243        0.8474943584  CLST      41              1.0000000000
       205        41  DCM       CL2             6.0456211104        1.8792478449       -1.2860106713  CLST      41              1.0000000000
       206        42  DCM       C              -1.9946131129       -8.3330015274        1.2186370085  CLST      42              1.0000000000
       207        42  DCM       H1             -1.9304999897       -8.8312424008        2.2082817828  CLST      42              1.0000000000
       208        42  DCM       H2             -1.0693634448       -8.4964565416        0.6263763076  CLST      42              1.0000000000
       209        42  DCM       CL1            -3.3889122063       -8.9964295639        0.3192904888  CLST      42              1.0000000000
       210        42  DCM       CL2            -2.2155644554       -6.5793131296        1.4641832921  CLST      42              1.0000000000
       211        43  DCM       C               5.2535090864        9.4524378438       -9.4217594674  CLST      43              1.0000000000
       212        43  DCM       H1              6.0435451331        9.5874211597      -10.1893044601  CLST      43              1.0000000000
       213        43  DCM       H2              5.3846537881        8.4933758034       -8.8809384753  CLST      43              1.0000000000
       214        43  DCM       CL1             5.3400223762       10.7936351861       -8.2440101826  CLST      43              1.0000000000
       215        43  DCM       CL2             3.6604847143        9.4511036264      -10.2306945379  CLST      43              1.0000000000
       216        44  DCM       C              -8.7088787562        1.5418040545        2.5431772775  CLST      44              1.0000000000
       217        44  DCM       H1             -9.5133690668        2.2904418275        2.7071526265  CLST      44              1.0000000000
       218        44  DCM       H2             -7.8405415665        1.9977075473        2.0252050382  CLST      44              1.0000000000
       219        44  DCM       CL1            -8.1703639544        0.9119138236        4.1275733321  CLST      44              1.0000000000
       220        44  DCM       CL2            -9.3460421372        0.2086349354        1.5360458625  CLST      44              1.0000000000
       221        45  DCM       C              -9.5381373550       -2.3575443958        5.2112654503  CLST      45              1.0000000000
       222        45  DCM       H1             -8.5997757906       -2.0413135419        4.7108106209  CLST      45              1.0000000000
       223        45  DCM       H2             -9.6287186078       -3.4637929960        5.2227577189  CLST      45              1.0000000000
       224        45  DCM       CL1            -9.5343925369       -1.7592770789        6.8949277518  CLST      45              1.0000000000
       225        45  DCM       CL2           -10.9340281983       -1.6749713416        4.3292813634  CLST      45              1.0000000000
       226        46  DCM       C              -3.3500429597        1.0481634480       -4.9447892733  CLST      46              1.0000000000
       227        46  DCM       H1             -4.2429851874        0.5856495625       -4.4755043332  CLST      46              1.0000000000
       228        46  DCM       H2             -2.8130789653        1.6978968654       -4.2211941931  CLST      46              1.0000000000
       229        46  DCM       CL1            -2.2510067174       -0.2501262551       -5.4905647259  CLST      46              1.0000000000
       230        46  DCM       CL2            -3.8665266548        2.0372730939       -6.3406155101  CLST      46              1.0000000000
       231        47  DCM       C              -7.8000583744       -8.2237930572       -6.4828415816  CLST      47              1.0000000000
       232        47  DCM       H1             -7.4894504769       -8.1788675342       -7.5474283259  CLST      47              1.0000000000
       233        47  DCM       H2             -8.1871170495       -9.2318203091       -6.2213797327  CLST      47              1.0000000000
       234        47  DCM       CL1            -6.3884367747       -7.8574463875       -5.4478330212  CLST      47              1.0000000000
       235        47  DCM       CL2            -9.0900548769       -7.0175937678       -6.2054645559  CLST      47              1.0000000000
       236        48  DCM       C              -8.0045874859      -10.1601645893        7.6342207587  CLST      48              1.0000000000
       237        48  DCM       H1             -8.7058398276      -11.0214221804        7.6292348706  CLST      48              1.0000000000
       238        48  DCM       H2             -7.0817591605      -10.3977991632        8.2050474696  CLST      48              1.0000000000
       239        48  DCM       CL1            -8.8134576246       -8.7578567415        8.3899119301  CLST      48              1.0000000000
       240        48  DCM       CL2            -7.5608536319       -9.7639515120        5.9497900997  CLST      48              1.0000000000
       241        49  DCM       C               9.8852198500       -4.8786207940        9.2046331635  CLST      49              1.0000000000
       242        49  DCM       H1              9.3620902464       -4.7717995860       10.1786528389  CLST      49              1.0000000000
       243        49  DCM       H2             10.7472149047       -4.1813804928        9.1347738708  CLST      49              1.0000000000
       244        49  DCM       CL1            10.4731689584       -6.5579226660        9.0351218489  CLST      49              1.0000000000
       245        49  DCM       CL2             8.7383178883       -4.5132706787        7.8870184142  CLST      49              1.0000000000
       246        50  DCM       C               4.5845406440       -2.2825575322       -4.2309604608  CLST      50              1.0000000000
       247        50  DCM       H1              5.3379343929       -2.9213116175       -3.7233932884  CLST      50              1.0000000000
       248        50  DCM       H2              3.6166275238       -2.8152822290       -4.3325974071  CLST      50              1.0000000000
       249        50  DCM       CL1             4.3320079907       -0.7978864482       -3.2660118428  CLST      50              1.0000000000
       250        50  DCM       CL2             5.1758596941       -1.8613072446       -5.8638799754  CLST      50              1.0000000000
       251        51  DCM       C              -2.9256458448       -3.2298598771        4.2091438317  CLST      51              1.0000000000
       252        51  DCM       H1             -2.0744737552       -3.7586249877        4.6838817614  CLST      51              1.0000000000
       253        51  DCM       H2             -3.5008931146       -2.6520560975        4.9596853878  CLST      51              1.0000000000
       254        51  DCM       CL1            -2.3022755758       -2.1091677756        2.9708853103  CLST      51              1.0000000000
       255        51  DCM       CL2            -4.0073827718       -4.4282203055        3.4504112846  CLST      51              1.0000000000
       256        52  DCM       C              -1.5763747884       -6.9038749409        5.1214052173  CLST      52              1.0000000000
       257        52  DCM       H1             -2.4762972408       -6.7520659156        4.4915360042  CLST      52              1.0000000000
       258        52  DCM       H2             -1.7583724775       -6.5608999038        6.1605239488  CLST      52              1.0000000000
       259        52  DCM       CL1            -1.1656514180       -8.6424034973        5.1500198684  CLST      52              1.0000000000
       260        52  DCM       CL2            -0.2230947615       -5.9734200919        4.4190372610  CLST      52              1.0000000000
       261        53  DCM       C              11.1803830009        7.9940487288       -7.9014633979  CLST      53              1.0000000000
       262        53  DCM       H1             10.5371483073        8.1042216306       -8.7987719118  CLST      53              1.0000000000
       263        53  DCM       H2             10.6848004611        7.3642644870       -7.1342123250  CLST      53              1.0000000000
       264        53  DCM       CL1            12.7219047144        7.2289196407       -8.3802426653  CLST      53              1.0000000000
       265        53  DCM       CL2            11.4993659187        9.6102252246       -7.2094884305  CLST      53              1.0000000000
       266        54  DCM       C             -11.4951146554       -7.8783075321        4.3761162981  CLST      54              1.0000000000
       267        54  DCM       H1            -11.5605005537       -6.7718416756        4.4440215873  CLST      54              1.0000000000
       268        54  DCM       H2            -12.3593002267       -8.2955860664        3.8173686806  CLST      54              1.0000000000
       269        54  DCM       CL1            -9.9874110445       -8.3197485734        3.5261345836  CLST      54              1.0000000000
       270        54  DCM       CL2           -11.4805526215       -8.5668671571        6.0252822045  CLST      54              1.0000000000
       271        55  DCM       C               2.2040813825        1.8576312029        1.6277721092  CLST      55              1.0000000000
       272        55  DCM       H1              2.7595130461        1.3068092241        2.4106084805  CLST      55              1.0000000000
       273        55  DCM       H2              1.1085281869        1.7425820211        1.7632436881  CLST      55              1.0000000000
       274        55  DCM       CL1             2.6101852248        3.5901621920        1.7413806689  CLST      55              1.0000000000
       275        55  DCM       CL2             2.6645128373        1.2229320451        0.0213849789  CLST      55              1.0000000000
       276        56  DCM       C              -7.3405478516        9.8958295022       -1.9526776515  CLST      56              1.0000000000
       277        56  DCM       H1             -7.8727451879        8.9476873268       -1.7270306259  CLST      56              1.0000000000
       278        56  DCM       H2             -7.9413559093       10.5377177471       -2.6317664297  CLST      56              1.0000000000
       279        56  DCM       CL1            -7.0510133524       10.7756604443       -0.4238512686  CLST      56              1.0000000000
       280        56  DCM       CL2            -5.7797095522        9.5157355853       -2.7390537671  CLST      56              1.0000000000
       281        57  DCM       C               4.2423253002        1.3066541170       -7.5975836003  CLST      57              1.0000000000
       282        57  DCM       H1              3.8307590208        0.5745086136       -8.3233442550  CLST      57              1.0000000000
       283        57  DCM       H2              5.2966586674        1.0665235981       -7.3447994233  CLST      57              1.0000000000
       284        57  DCM       CL1             3.2628486959        1.2582467625       -6.1048496069  CLST      57              1.0000000000
       285        57  DCM       CL2             4.1682897419        2.9416811638       -8.3146998921  CLST      57              1.0000000000
       286        58  DCM       C               0.4258905023       -3.7611317003        1.3814235401  CLST      58              1.0000000000
       287        58  DCM       H1             -0.4162269000       -3.7407512633        0.6581141929  CLST      58              1.0000000000
       288        58  DCM       H2              0.0561894323       -3.7129904950        2.4264917348  CLST      58              1.0000000000
       289        58  DCM       CL1             1.4882468764       -2.3556051235        1.0772250050  CLST      58              1.0000000000
       290        58  DCM       CL2             1.3400835867       -5.2815283345        1.1648259989  CLST      58              1.0000000000
       291        59  DCM       C               9.0929129614       -3.6381452684        0.9311305709  CLST      59              1.0000000000
       292        59  DCM       H1              8.0383460509       -3.8852425971        1.1783408756  CLST      59              1.0000000000
       293        59  DCM       H2              9.7495638541       -4.5234160569        1.0517903612  CLST      59              1.0000000000
       294        59  DCM       CL1             9.1759291399       -3.0753495576       -0.7631874031  CLST      59              1.0000000000
       295        59  DCM       CL2             9.6574844471       -2.3472118371        2.0289002950  CLST      59              1.0000000000
       296        60  DCM       C              -7.8761049882       -0.9290902635       -3.2818961519  CLST      60              1.0000000000
       297        60  DCM       H1             -8.6230532731       -0.1090530421       -3.2870792383  CLST      60              1.0000000000
       298        60  DCM       H2             -8.3762084241       -1.9199724637       -3.3160122421  CLST      60              1.0000000000
       299        60  DCM       CL1            -6.8279430801       -0.7600538458       -4.7183783656  CLST      60              1.0000000000
       300        60  DCM       CL2            -6.8911787062       -0.8244450124       -1.7933302603  CLST      60              1.0000000000
       301        61  DCM       C               8.9412152460        7.2846571903      -12.6753545683  CLST      61              1.0000000000
       302        61  DCM       H1              9.0190508670        7.8131561664      -13.6490485249  CLST      61              1.0000000000
       303        61  DCM       H2              8.0457909386        7.6183544199      -12.1097759517  CLST      61              1.0000000000
       304        61  DCM       CL1             8.8277184956        5.5255978543      -12.9725249112  CLST      61              1.0000000000
       305        61  DCM       CL2            10.3994297418        7.6352868849      -11.7074941021  CLST      61              1.0000000000
       306        62  DCM       C              -7.9739934927        2.9247362817       -2.8963490064  CLST      62              1.0000000000
       307        62  DCM       H1             -8.1350107256        2.2047972951       -2.0657799908  CLST      62              1.0000000000
       308        62  DCM       H2             -8.7644625735        2.8288395587       -3.6691661465  CLST      62              1.0000000000
       309        62  DCM       CL1            -8.0004952842        4.5840421632       -2.2361067374  CLST      62              1.0000000000
       310        62  DCM       CL2            -6.3850731961        2.6022072533       -3.6448613419  CLST      62              1.0000000000
       311        63  DCM       C               2.8853535246       -5.8304888542       -2.2195857667  CLST      63              1.0000000000
       312        63  DCM       H1              2.0464106004       -6.3607951437       -2.7163523353  CLST      63              1.0000000000
       313        63  DCM       H2              3.0875495658       -6.2602930023       -1.2158604246  CLST      63              1.0000000000
       314        63  DCM       CL1             4.3526655104       -5.9777599110       -3.2287851163  CLST      63              1.0000000000
       315        63  DCM       CL2             2.4552207836       -4.1074446249       -2.0379791321  CLST      63              1.0000000000
       316        64  DCM       C              -4.9127948089       -1.1540970549       -8.1806591401  CLST      64              1.0000000000
       317        64  DCM       H1             -5.3976822258       -0.4243464195       -7.4995452419  CLST      64              1.0000000000
       318        64  DCM       H2             -5.6216633512       -1.5061651791       -8.9597667108  CLST      64              1.0000000000
       319        64  DCM       CL1            -3.5148728811       -0.3733181702       -8.9748802762  CLST      64              1.0000000000
       320        64  DCM       CL2            -4.3630530587       -2.5542127494       -7.2200335203  CLST      64              1.0000000000
       321        65  DCM       C               7.9411852998       -0.0031417494       -3.9319349599  CLST      65              1.0000000000
       322        65  DCM       H1              7.9355104844        0.2462705041       -2.8504476208  CLST      65              1.0000000000
       323        65  DCM       H2              7.5908331518       -1.0421026449       -4.1022788488  CLST      65              1.0000000000
       324        65  DCM       CL1             6.8568374058        1.1255694433       -4.7899348674  CLST      65              1.0000000000
       325        65  DCM       CL2             9.6034864848        0.1683015655       -4.5624078320  CLST      65              1.0000000000
       326        66  DCM       C               4.8286721886        2.5454144665        5.4081806013  CLST      66              1.0000000000
       327        66  DCM       H1              4.9106435288        3.2540492048        6.2601062085  CLST      66              1.0000000000
       328        66  DCM       H2              5.4584809361        1.6469638779        5.5733256131  CLST      66              1.0000000000
       329        66  DCM       CL1             3.1254874767        2.0373395099        5.2363290630  CLST      66              1.0000000000
       330        66  DCM       CL2             5.3725201455        3.3646177185        3.9166179602  CLST      66              1.0000000000
       331        67  DCM       C               3.6583292801       -5.9807177864        3.8426075533  CLST      67              1.0000000000
       332        67  DCM       H1              2.6855277581       -6.5133660456        3.8028964842  CLST      67              1.0000000000
       333        67  DCM       H2              4.2809123383       -6.2163751719        2.9551045242  CLST      67              1.0000000000
       334        67  DCM       CL1             3.3582047857       -4.2233776014        3.8813724073  CLST      67              1.0000000000
       335        67  DCM       CL2             4.5312259368       -6.4741752816        5.3186180429  CLST      67              1.0000000000
       336        68  DCM       C              -2.5808738143        0.3953648058        0.0851525169  CLST      68              1.0000000000
       337        68  DCM       H1             -2.9859054436        1.3231595610        0.5413458163  CLST      68              1.0000000000
       338        68  DCM       H2             -2.8722011274       -0.4998409119        0.6671444774  CLST      68              1.0000000000
       339        68  DCM       CL1            -3.2120754653        0.2373979161       -1.5771234090  CLST      68              1.0000000000
       340        68  DCM       CL2            -0.8017368706        0.4858185197        0.0600505066  CLST      68              1.0000000000
       341        69  DCM       C              12.0308418094        2.2377950675       -2.9362463275  CLST      69              1.0000000000
       342        69  DCM       H1             11.5510989722        1.7157173481       -2.0823820297  CLST      69              1.0000000000
       343        69  DCM       H2             11.2865251177        2.4813666755       -3.7228275872  CLST      69              1.0000000000
       344        69  DCM       CL1            12.7765072590        3.7532093351       -2.3519030994  CLST      69              1.0000000000
       345        69  DCM       CL2            13.2848980909        1.1745866482       -3.6360922838  CLST      69              1.0000000000
       346        70  DCM       C               4.0561029649       -2.4912239924        7.0834347959  CLST      70              1.0000000000
       347        70  DCM       H1              3.6584880524       -2.0573691439        8.0249464637  CLST      70              1.0000000000
       348        70  DCM       H2              3.2493194982       -2.9748596384        6.4976283570  CLST      70              1.0000000000
       349        70  DCM       CL1             4.7861275464       -1.1891082602        6.1033743687  CLST      70              1.0000000000
       350        70  DCM       CL2             5.2932471624       -3.7153220187        7.4810786446  CLST      70              1.0000000000
       351        71  DCM       C              -5.0487582491        7.8512235578        0.8076808793  CLST      71              1.0000000000
       352        71  DCM       H1             -4.1475834950        7.2059955252        0.8782431300  CLST      71              1.0000000000
       353        71  DCM       H2             -4.8239331941        8.7862539346        0.2548138601  CLST      71              1.0000000000
       354        71  DCM       CL1            -6.3337863176        6.9566646483       -0.0534741623  CLST      71              1.0000000000
       355        71  DCM       CL2            -5.5973667066        8.2632351721        2.4578773821  CLST      71              1.0000000000
       356        72  DCM       C              -7.2514956291        7.1921943393       -5.8005552258  CLST      72              1.0000000000
       357        72  DCM       H1             -6.3969161241        7.9009093408       -5.7435441075  CLST      72              1.0000000000
       358        72  DCM       H2             -7.8350610878        7.3417890091       -6.7324460554  CLST      72              1.0000000000
       359        72  DCM       CL1            -6.6232190252        5.5203009381       -5.7683735279  CLST      72              1.0000000000
       360        72  DCM       CL2            -8.3220944428        7.4598473655       -4.3959600000  CLST      72              1.0000000000
       361        73  DCM       C              11.4620960355       -5.7492696365        5.3843864284  CLST      73              1.0000000000
       362        73  DCM       H1             12.1665186005       -6.6009654908        5.4890948655  CLST      73              1.0000000000
       363        73  DCM       H2             10.4637930306       -6.0044298572        5.7973403147  CLST      73              1.0000000000
       364        73  DCM       CL1            12.1135210889       -4.3422616178        6.2731867997  CLST      73              1.0000000000
       365        73  DCM       CL2            11.2914930818       -5.3438856910        3.6518375597  CLST      73              1.0000000000
       366        74  DCM       C               8.3530929033        3.5647901126       -6.8705728084  CLST      74              1.0000000000
       367        74  DCM       H1              9.0368871430        4.3340013562       -7.2847664138  CLST      74              1.0000000000
       368        74  DCM       H2              8.8331741067        3.0139453536       -6.0340010814  CLST      74              1.0000000000
       369        74  DCM       CL1             7.9306570254        2.4051995629       -8.1626569546  CLST      74              1.0000000000
       370        74  DCM       CL2             6.8769080858        4.3684978140       -6.2686075317  CLST      74              1.0000000000
       371        75  DCM       C              -0.0106332491        4.0286969216       -0.4332678513  CLST      75              1.0000000000
       372        75  DCM       H1              1.0471716739        3.9541108533       -0.7592102778  CLST      75              1.0000000000
       373        75  DCM       H2             -0.2142401777        3.3457837312        0.4161502272  CLST      75              1.0000000000
       374        75  DCM       CL1            -0.3427802396        5.7058079254        0.0821021550  CLST      75              1.0000000000
       375        75  DCM       CL2            -1.0743759776        3.5838305722       -1.7948744336  CLST      75              1.0000000000
       376        76  DCM       C               4.7692511784       -6.3268949895       10.0270057103  CLST      76              1.0000000000
       377        76  DCM       H1              4.6763619718       -6.3014805661        8.9204730473  CLST      76              1.0000000000
       378        76  DCM       H2              4.4719134703       -7.3188587922       10.4281017201  CLST      76              1.0000000000
       379        76  DCM       CL1             6.4671947244       -6.0008241168       10.4778937315  CLST      76              1.0000000000
       380        76  DCM       CL2             3.7031572849       -5.0746396779       10.7262798580  CLST      76              1.0000000000
       381        77  DCM       C               8.4872640635       -8.1946387121        0.2326048136  CLST      77              1.0000000000
       382        77  DCM       H1              8.4920404396       -8.0629818124       -0.8719085576  CLST      77              1.0000000000
       383        77  DCM       H2              7.6053908900       -7.7032207396        0.6884932248  CLST      77              1.0000000000
       384        77  DCM       CL1             8.4408788863       -9.9414333583        0.6093419303  CLST      77              1.0000000000
       385        77  DCM       CL2             9.9721425433       -7.4681377009        0.9111975941  CLST      77              1.0000000000
       386        78  DCM       C              -3.2370635110       -4.0278798543        8.2142839427  CLST      78              1.0000000000
       387        78  DCM       H1             -3.5358607649       -2.9627654894        8.3012145321  CLST      78              1.0000000000
       388        78  DCM       H2             -3.3425252934       -4.5522685375        9.1866394910  CLST      78              1.0000000000
       389        78  DCM       CL1            -4.2748105498       -4.8275242003        7.0037642842  CLST      78              1.0000000000
       390        78  DCM       CL2            -1.5338183450       -4.1141322426        7.6922697748  CLST      78              1.0000000000
       391        79  DCM       C              -9.1253006291       -0.8829413619       10.6334895866  CLST      79              1.0000000000
       392        79  DCM       H1             -9.0604425572       -1.6934593084        9.8782783484  CLST      79              1.0000000000
       393        79  DCM       H2            -10.1414544392       -0.8340576003       11.0800039915  CLST      79              1.0000000000
       394        79  DCM       CL1            -8.7629136152        0.6764080926        9.8381316954  CLST      79              1.0000000000
       395        79  DCM       CL2            -7.9310103741       -1.1956691677       11.9274904611  CLST      79              1.0000000000
       396        80  DCM       C              -3.3418789296        8.7880721560        8.1349720858  CLST      80              1.0000000000
       397        80  DCM       H1             -3.7469322906        9.0966244633        9.1238802015  CLST      80              1.0000000000
       398        80  DCM       H2             -2.3695099234        8.2669510808        8.2468275634  CLST      80              1.0000000000
       399        80  DCM       CL1            -3.1093756549       10.2453668141        7.1253648120  CLST      80              1.0000000000
       400        80  DCM       CL2            -4.5077547564        7.6835182485        7.3480045990  CLST      80              1.0000000000
       401        81  DCM       C               9.0956864173        3.0731046286        4.9462163599  CLST      81              1.0000000000
       402        81  DCM       H1              9.6003423630        4.0592006876        5.0180520635  CLST      81              1.0000000000
       403        81  DCM       H2              8.3941268013        3.0456812276        4.0854027178  CLST      81              1.0000000000
       404        81  DCM       CL1            10.3324937313        1.8010737630        4.7307953118  CLST      81              1.0000000000
       405        81  DCM       CL2             8.1862698647        2.7765945602        6.4566615521  CLST      81              1.0000000000
       406        82  DCM       C              -1.8854717660       -6.8318827107       13.6340487554  CLST      82              1.0000000000
       407        82  DCM       H1             -1.1565301853       -6.1080409213       13.2123923410  CLST      82              1.0000000000
       408        82  DCM       H2             -1.9071209029       -6.7774233222       14.7432882248  CLST      82              1.0000000000
       409        82  DCM       CL1            -3.5137699720       -6.4536379894       13.0017828137  CLST      82              1.0000000000
       410        82  DCM       CL2            -1.4163052451       -8.4859562170       13.1438189017  CLST      82              1.0000000000
       411        83  DCM       C              -5.3156035457       -5.6807798203       -8.4195575058  CLST      83              1.0000000000
       412        83  DCM       H1             -4.6366157556       -4.9871480105       -8.9583380981  CLST      83              1.0000000000
       413        83  DCM       H2             -5.1818298943       -5.5958450909       -7.3200483081  CLST      83              1.0000000000
       414        83  DCM       CL1            -7.0072502289       -5.2758984938       -8.8306552488  CLST      83              1.0000000000
       415        83  DCM       CL2            -4.9483294271       -7.3559305350       -8.9226849103  CLST      83              1.0000000000
       416        84  DCM       C              -7.3328018764       -4.7382220248       -3.5235951827  CLST      84              1.0000000000
       417        84  DCM       H1             -6.9217723071       -5.7579810175       -3.3661727152  CLST      84              1.0000000000
       418        84  DCM       H2             -6.8697349768       -4.0099102333       -2.8261500896  CLST      84              1.0000000000
       419        84  DCM       CL1            -6.9949451723       -4.2316442820       -5.2023479743  CLST      84              1.0000000000
       420        84  DCM       CL2            -9.0980438827       -4.7715365010       -3.2480882753  CLST      84              1.0000000000
       421        85  DCM       C              -7.5300858176        1.9928315551       -7.1327945482  CLST      85              1.0000000000
       422        85  DCM       H1             -7.4602139009        3.0998784102       -7.1269790420  CLST      85              1.0000000000
       423        85  DCM       H2             -6.7181242056        1.5404291692       -6.5281000047  CLST      85              1.0000000000
       424        85  DCM       CL1            -9.1054647376        1.5028287416       -6.4453710019  CLST      85              1.0000000000
       425        85  DCM       CL2            -7.3895832875        1.4132367797       -8.8170868807  CLST      85              1.0000000000
       426        86  DCM       C               6.8189116453        5.4604231231       -9.8167503986  CLST      86              1.0000000000
       427        86  DCM       H1              7.5007848982        4.7824867611      -10.3727531026  CLST      86              1.0000000000
       428        86  DCM       H2              6.2482884053        4.9024334319       -9.0464067406  CLST      86              1.0000000000
       429        86  DCM       CL1             7.7855618292        6.7334804218       -9.0173414162  CLST      86              1.0000000000
       430        86  DCM       CL2             5.6644398914        6.2017779202      -10.9612574615  CLST      86              1.0000000000
       431        87  DCM       C               8.8801088695       11.7358533729       -8.8004513026  CLST      87              1.0000000000
       432        87  DCM       H1              8.9003977274       11.4048436516       -7.7405701281  CLST      87              1.0000000000
       433        87  DCM       H2              7.9880196183       12.3651153731       -9.0045698843  CLST      87              1.0000000000
       434        87  DCM       CL1             8.8314960676       10.2969104529       -9.8591435817  CLST      87              1.0000000000
       435        87  DCM       CL2            10.3549740421       12.6867634167       -9.1398693004  CLST      87              1.0000000000
       436        88  DCM       C              12.0394413677        4.5182637423      -10.8156425637  CLST      88              1.0000000000
       437        88  DCM       H1             12.3778890013        5.5598949535      -10.9998633093  CLST      88              1.0000000000
       438        88  DCM       H2             11.7507375932        4.0187183265      -11.7645450999  CLST      88              1.0000000000
       439        88  DCM       CL1            10.6261781714        4.5481163308       -9.7216914531  CLST      88              1.0000000000
       440        88  DCM       CL2            13.3740318035        3.6052103280      -10.0547974119  CLST      88              1.0000000000
       441        89  DCM       C               3.6909536174        6.4903731064       -7.3396399809  CLST      89              1.0000000000
       442        89  DCM       H1              4.1663353260        6.3671601470       -8.3346304753  CLST      89              1.0000000000
       443        89  DCM       H2              3.4192735361        5.5073490978       -6.9037643866  CLST      89              1.0000000000
       444        89  DCM       CL1             4.8326906896        7.3127490081       -6.2400182014  CLST      89              1.0000000000
       445        89  DCM       CL2             2.2112129667        7.4745236414       -7.5215140429  CLST      89              1.0000000000
       446        90  DCM       C              -3.2465702265       -1.8667717917       11.6832381642  CLST      90              1.0000000000
       447        90  DCM       H1             -4.2892348222       -2.2481795353       11.6597129432  CLST      90              1.0000000000
       448        90  DCM       H2             -3.0385310086       -1.3361252810       12.6363860592  CLST      90              1.0000000000
       449        90  DCM       CL1            -2.1117040312       -3.2396638210       11.5224534233  CLST      90              1.0000000000
       450        90  DCM       CL2            -3.0171781036       -0.7295055633       10.3243979515  CLST      90              1.0000000000
       451        91  DCM       C               1.4842671733       -1.1885651710        4.6613202968  CLST      91              1.0000000000
       452        91  DCM       H1              1.9544373269       -0.6383597754        5.5017420548  CLST      91              1.0000000000
       453        91  DCM       H2              2.2490709281       -1.5545536348        3.9465089245  CLST      91              1.0000000000
       454        91  DCM       CL1             0.5707847104       -2.5758806715        5.3125270998  CLST      91              1.0000000000
       455        91  DCM       CL2             0.3751626801       -0.0897092795        3.8047287917  CLST      91              1.0000000000
       456        92  DCM       C              -0.4611640548        3.1765414478       -6.2147014630  CLST      92              1.0000000000
       457        92  DCM       H1             -1.2206280771        3.9198784428       -5.8924744941  CLST      92              1.0000000000
       458        92  DCM       H2             -0.8896417537        2.4600023071       -6.9466241607  CLST      92              1.0000000000
       459        92  DCM       CL1             0.9087976262        4.0335605018       -6.9727885627  CLST      92              1.0000000000
       460        92  DCM       CL2             0.1154766021        2.2748069670       -4.7862578601  CLST      92              1.0000000000
       461        93  DCM       C              -5.7191949617       -0.7837548510        1.6605277245  CLST      93              1.0000000000
       462        93  DCM       H1             -6.5021005622       -0.2081489129        1.1265655650  CLST      93              1.0000000000
       463        93  DCM       H2             -4.9849589468       -1.2093722358        0.9465389661  CLST      93              1.0000000000
       464        93  DCM       CL1            -6.4917434260       -2.1224697568        2.5485130090  CLST      93              1.0000000000
       465        93  DCM       CL2            -4.8798624942        0.3006499819        2.8072875283  CLST      93              1.0000000000
       466        94  DCM       C              -7.5162046777       -4.6745763089       11.0934368245  CLST      94              1.0000000000
       467        94  DCM       H1             -7.9615284224       -4.0423869992       10.2966302660  CLST      94              1.0000000000
       468        94  DCM       H2             -7.7635424893       -4.2808643466       12.1018722962  CLST      94              1.0000000000
       469        94  DCM       CL1            -8.1540887058       -6.3362513667       10.9461769376  CLST      94              1.0000000000
       470        94  DCM       CL2            -5.7423023693       -4.6903833842       10.8935304493  CLST      94              1.0000000000
       471        95  DCM       C               7.6573148472       -4.7842225136        4.5435673568  CLST      95              1.0000000000
       472        95  DCM       H1              7.2037030030       -5.1897185801        5.4725638828  CLST      95              1.0000000000
       473        95  DCM       H2              8.7184708687       -4.5071833394        4.7046563891  CLST      95              1.0000000000
       474        95  DCM       CL1             6.7539950386       -3.3290695100        4.0516003095  CLST      95              1.0000000000
       475        95  DCM       CL2             7.5554914507       -6.0210130741        3.2599581501  CLST      95              1.0000000000
       476        96  DCM       C              -9.6571187318       -3.5400526299        1.3461198207  CLST      96              1.0000000000
       477        96  DCM       H1             -9.2390535069       -2.7651756384        2.0208207214  CLST      96              1.0000000000
       478        96  DCM       H2            -10.4904287036       -3.1291194399        0.7377593929  CLST      96              1.0000000000
       479        96  DCM       CL1            -8.3662574628       -4.1206920302        0.2536947953  CLST      96              1.0000000000
       480        96  DCM       CL2           -10.2705870612       -4.8929907452        2.3390578522  CLST      96              1.0000000000
       481        97  DCM       C               4.9787470434       -3.9230013966        0.6069841469  CLST      97              1.0000000000
       482        97  DCM       H1              3.8721740270       -3.9485248861        0.5451075617  CLST      97              1.0000000000
       483        97  DCM       H2              5.3107517232       -3.5998648566        1.6146049663  CLST      97              1.0000000000
       484        97  DCM       CL1             5.6194490646       -5.5565927327        0.2781627912  CLST      97              1.0000000000
       485        97  DCM       CL2             5.6013935433       -2.7726531280       -0.6083311203  CLST      97              1.0000000000
       486        98  DCM       C              -4.6504074664        3.6491274452       -0.7023445482  CLST      98              1.0000000000
       487        98  DCM       H1             -3.9749959091        3.1489400274       -1.4267485223  CLST      98              1.0000000000
       488        98  DCM       H2             -5.2320823189        4.4547794502       -1.1966374051  CLST      98              1.0000000000
       489        98  DCM       CL1            -5.7816911166        2.4429960819       -0.0276776182  CLST      98              1.0000000000
       490        98  DCM       CL2            -3.6764071548        4.3631393268        0.6116460820  CLST      98              1.0000000000
