* PRE_MLPOT:MONOMER_REPACK
*  DATE:     6/28/26      1:57:27      CREATED BY USER: boittier
*
       460  EXT
         1         1  DCM       C               1.7510575491        1.1849154305        1.8972090878  CLST      1               1.0000000000
         2         1  DCM       H1              2.0114197184        1.3062411213        2.9693326899  CLST      1               1.0000000000
         3         1  DCM       H2              1.4157436267        0.1483904014        1.6794898564  CLST      1               1.0000000000
         4         1  DCM       CL1             0.4372625705        2.3218318712        1.4772573468  CLST      1               1.0000000000
         5         1  DCM       CL2             3.1940995820        1.5408503330        0.9086818959  CLST      1               1.0000000000
         6         2  DCM       C              -2.3928516748        0.6225537358       -1.1009739953  CLST      2               1.0000000000
         7         2  DCM       H1             -1.6473156923        0.6353244461       -0.2784487931  CLST      2               1.0000000000
         8         2  DCM       H2             -3.3786976097        0.9945386945       -0.7519793425  CLST      2               1.0000000000
         9         2  DCM       CL1            -1.8133812903        1.6744153208       -2.4213643615  CLST      2               1.0000000000
        10         2  DCM       CL2            -2.5759440868       -1.0548277011       -1.6908934826  CLST      2               1.0000000000
        11         3  DCM       C               0.4704751336       -0.3896901958       -2.9454015522  CLST      3               1.0000000000
        12         3  DCM       H1              0.9635935212       -1.1262249851       -3.6139823654  CLST      3               1.0000000000
        13         3  DCM       H2              0.5918620858        0.6450320620       -3.3294142895  CLST      3               1.0000000000
        14         3  DCM       CL1            -1.2724722264       -0.7753532698       -2.8462823194  CLST      3               1.0000000000
        15         3  DCM       CL2             1.2127707571       -0.4924903123       -1.3229725576  CLST      3               1.0000000000
        16         4  DCM       C              -0.7734532800       -2.6521609366        1.2758847110  CLST      4               1.0000000000
        17         4  DCM       H1             -0.5938566760       -1.7368378238        1.8757921593  CLST      4               1.0000000000
        18         4  DCM       H2             -0.6927737577       -2.4488202048        0.1894755420  CLST      4               1.0000000000
        19         4  DCM       CL1             0.4430757317       -3.8805583184        1.7232957712  CLST      4               1.0000000000
        20         4  DCM       CL2            -2.4177066185       -3.2531973036        1.6180748140  CLST      4               1.0000000000
        21         5  DCM       C               1.4210811647       -1.2386865045       -3.1451411239  CLST      5               1.0000000000
        22         5  DCM       H1              2.0367571233       -1.8579231721       -3.8289128380  CLST      5               1.0000000000
        23         5  DCM       H2              1.8506082316       -1.2409394673       -2.1222637442  CLST      5               1.0000000000
        24         5  DCM       CL1             1.3809907140        0.4380829287       -3.7620749617  CLST      5               1.0000000000
        25         5  DCM       CL2            -0.2360868081       -1.9056302000       -3.0870020749  CLST      5               1.0000000000
        26         6  DCM       C              -2.7598991597       -2.7227079446        2.3011228416  CLST      6               1.0000000000
        27         6  DCM       H1             -2.4170122862       -1.6693125059        2.3822436333  CLST      6               1.0000000000
        28         6  DCM       H2             -3.2911984678       -3.0398037188        3.2231301927  CLST      6               1.0000000000
        29         6  DCM       CL1            -3.8791412669       -2.8702869019        0.9165554089  CLST      6               1.0000000000
        30         6  DCM       CL2            -1.3435682574       -3.7836082131        2.0535145791  CLST      6               1.0000000000
        31         7  DCM       C               1.7440508234        0.3833401405       -2.5392986154  CLST      7               1.0000000000
        32         7  DCM       H1              0.7618918368       -0.0351970875       -2.2353116212  CLST      7               1.0000000000
        33         7  DCM       H2              2.5068811907       -0.4169618206       -2.6305601868  CLST      7               1.0000000000
        34         7  DCM       CL1             1.5671912373        1.1917101278       -4.1209887548  CLST      7               1.0000000000
        35         7  DCM       CL2             2.2797812352        1.5642660389       -1.3119123336  CLST      7               1.0000000000
        36         8  DCM       C              -0.5368198305        1.0486196519       -1.9727263137  CLST      8               1.0000000000
        37         8  DCM       H1             -0.4762904163        0.6431484293       -3.0045067861  CLST      8               1.0000000000
        38         8  DCM       H2             -1.1064748921        0.3638833970       -1.3100092568  CLST      8               1.0000000000
        39         8  DCM       CL1             1.1121854758        1.2306041523       -1.3178886883  CLST      8               1.0000000000
        40         8  DCM       CL2            -1.3426537750        2.6441206544       -2.0106067388  CLST      8               1.0000000000
        41         9  DCM       C               0.8046540477       -3.0084449537        2.4710240905  CLST      9               1.0000000000
        42         9  DCM       H1              1.6890912382       -3.6795769875        2.4953490696  CLST      9               1.0000000000
        43         9  DCM       H2              0.5122742774       -2.7732968948        1.4255977034  CLST      9               1.0000000000
        44         9  DCM       CL1             1.2048511472       -1.4888271287        3.3248734179  CLST      9               1.0000000000
        45         9  DCM       CL2            -0.5632324324       -3.8186362319        3.2878277071  CLST      9               1.0000000000
        46        10  DCM       C               2.5677188605        1.2469374562       -1.9097755630  CLST      10              1.0000000000
        47        10  DCM       H1              3.3462456688        1.8313355004       -2.4428808054  CLST      10              1.0000000000
        48        10  DCM       H2              2.5055758154        0.2075684395       -2.2980819507  CLST      10              1.0000000000
        49        10  DCM       CL1             2.9540335604        1.2063355322       -0.1645689593  CLST      10              1.0000000000
        50        10  DCM       CL2             0.9916723723        2.0453149297       -2.1559512719  CLST      10              1.0000000000
        51        11  DCM       C              -2.2899536753        1.7008306572       -2.4781881869  CLST      11              1.0000000000
        52        11  DCM       H1             -3.0046190450        1.7517239309       -1.6296269685  CLST      11              1.0000000000
        53        11  DCM       H2             -1.3659485744        1.1553187235       -2.1918425664  CLST      11              1.0000000000
        54        11  DCM       CL1            -3.0691400635        0.8479443610       -3.8429249152  CLST      11              1.0000000000
        55        11  DCM       CL2            -1.8531181008        3.3630990569       -2.9711803790  CLST      11              1.0000000000
        56        12  DCM       C              -1.5453569072        2.3148547849        2.0098188739  CLST      12              1.0000000000
        57        12  DCM       H1             -0.8229367796        1.8257290908        2.6969696166  CLST      12              1.0000000000
        58        12  DCM       H2             -1.8924757282        1.6092371459        1.2256759001  CLST      12              1.0000000000
        59        12  DCM       CL1            -2.9556986196        2.8801638219        2.9518230704  CLST      12              1.0000000000
        60        12  DCM       CL2            -0.7467595513        3.7072545188        1.2239681910  CLST      12              1.0000000000
        61        13  DCM       C              -1.9584585670        2.7774993836        2.6571939152  CLST      13              1.0000000000
        62        13  DCM       H1             -2.4477938986        3.7611102372        2.8133188378  CLST      13              1.0000000000
        63        13  DCM       H2             -0.8581052463        2.8553400562        2.7828113189  CLST      13              1.0000000000
        64        13  DCM       CL1            -2.3191615381        2.2154436965        1.0023568267  CLST      13              1.0000000000
        65        13  DCM       CL2            -2.6041571959        1.6118550510        3.8471380567  CLST      13              1.0000000000
        66        14  DCM       C               2.1932840634       -0.2320821968        0.9792830957  CLST      14              1.0000000000
        67        14  DCM       H1              2.3919314292        0.8145124277        1.2937629680  CLST      14              1.0000000000
        68        14  DCM       H2              3.1294812592       -0.7427791989        0.6696028763  CLST      14              1.0000000000
        69        14  DCM       CL1             1.4625692398       -1.1282373529        2.3422287693  CLST      14              1.0000000000
        70        14  DCM       CL2             1.0620450157       -0.2120054397       -0.4005201302  CLST      14              1.0000000000
        71        15  DCM       C               1.9441814238        1.7105896983        2.7338627364  CLST      15              1.0000000000
        72        15  DCM       H1              2.5634559831        1.0581064532        3.3825145605  CLST      15              1.0000000000
        73        15  DCM       H2              0.8637973745        1.5438798881        2.9251762139  CLST      15              1.0000000000
        74        15  DCM       CL1             2.3488170413        3.4154885156        3.0839369468  CLST      15              1.0000000000
        75        15  DCM       CL2             2.2993015002        1.3402762716        1.0219550558  CLST      15              1.0000000000
        76        16  DCM       C               0.1089425607        0.2392789761        2.0690855719  CLST      16              1.0000000000
        77        16  DCM       H1             -0.8651810096        0.2273583043        1.5357363582  CLST      16              1.0000000000
        78        16  DCM       H2              0.0070167663       -0.1662361354        3.0973957106  CLST      16              1.0000000000
        79        16  DCM       CL1             1.2745131757       -0.7653611844        1.1697507764  CLST      16              1.0000000000
        80        16  DCM       CL2             0.7120153447        1.9181106440        2.1547743553  CLST      16              1.0000000000
        81        17  DCM       C              -2.2015533785        2.7794712933       -2.2494153602  CLST      17              1.0000000000
        82        17  DCM       H1             -2.7174043794        2.4358539243       -3.1693882060  CLST      17              1.0000000000
        83        17  DCM       H2             -2.6698773928        3.7046895343       -1.8534862643  CLST      17              1.0000000000
        84        17  DCM       CL1            -2.2996392690        1.4905645580       -1.0160502392  CLST      17              1.0000000000
        85        17  DCM       CL2            -0.4930258301        3.1183895489       -2.6337223020  CLST      17              1.0000000000
        86        18  DCM       C               0.9955528872       -1.8354036241        1.7439376204  CLST      18              1.0000000000
        87        18  DCM       H1              0.2131106004       -2.4642178720        2.2187085993  CLST      18              1.0000000000
        88        18  DCM       H2              1.8362874878       -2.4575345360        1.3697809281  CLST      18              1.0000000000
        89        18  DCM       CL1             0.2731796272       -0.9469993717        0.3715563215  CLST      18              1.0000000000
        90        18  DCM       CL2             1.6212041705       -0.6757555274        2.9518866447  CLST      18              1.0000000000
        91        19  DCM       C               1.2357588853        1.8822175935       -0.9662349731  CLST      19              1.0000000000
        92        19  DCM       H1              0.5446722589        2.5815053695       -0.4498673293  CLST      19              1.0000000000
        93        19  DCM       H2              2.1888052211        1.7753603730       -0.4074911033  CLST      19              1.0000000000
        94        19  DCM       CL1             1.5883888140        2.5126030245       -2.5986139175  CLST      19              1.0000000000
        95        19  DCM       CL2             0.4562168363        0.2811687772       -1.0973571023  CLST      19              1.0000000000
        96        20  DCM       C               1.9888675545       -3.5701605039       -0.0748606365  CLST      20              1.0000000000
        97        20  DCM       H1              2.4168843455       -4.5941568625       -0.0712261073  CLST      20              1.0000000000
        98        20  DCM       H2              2.6795805612       -2.8472686797        0.4048020344  CLST      20              1.0000000000
        99        20  DCM       CL1             1.7081341450       -3.0686236854       -1.7638394147  CLST      20              1.0000000000
       100        20  DCM       CL2             0.4440870925       -3.5742730550        0.8208245974  CLST      20              1.0000000000
       101        21  DCM       C              -1.5249427259       -1.3827335714       -2.3802352909  CLST      21              1.0000000000
       102        21  DCM       H1             -1.9868331335       -2.0188046762       -1.5964082425  CLST      21              1.0000000000
       103        21  DCM       H2             -2.2102257724       -0.5608076546       -2.6772294206  CLST      21              1.0000000000
       104        21  DCM       CL1            -0.0109211094       -0.6793254911       -1.7418724190  CLST      21              1.0000000000
       105        21  DCM       CL2            -1.1678397360       -2.3915699350       -3.8118001775  CLST      21              1.0000000000
       106        22  DCM       C               2.6080448007        0.6293727344        2.4119927565  CLST      22              1.0000000000
       107        22  DCM       H1              3.3624068187       -0.1716474410        2.2644455626  CLST      22              1.0000000000
       108        22  DCM       H2              2.2425360271        0.6425466802        3.4605710839  CLST      22              1.0000000000
       109        22  DCM       CL1             3.3535152148        2.2098231278        2.0316581871  CLST      22              1.0000000000
       110        22  DCM       CL2             1.2223913029        0.3310030015        1.3238752839  CLST      22              1.0000000000
       111        23  DCM       C               1.3882941120        3.0907915623       -1.2089311623  CLST      23              1.0000000000
       112        23  DCM       H1              1.9563572904        2.2641811650       -1.6826752419  CLST      23              1.0000000000
       113        23  DCM       H2              0.6324714327        3.5024096485       -1.9082699556  CLST      23              1.0000000000
       114        23  DCM       CL1             0.5612965647        2.4641526967        0.2441319625  CLST      23              1.0000000000
       115        23  DCM       CL2             2.5237754816        4.3919589193       -0.7537300692  CLST      23              1.0000000000
       116        24  DCM       C               0.5446427571       -2.6450174849        0.3481274195  CLST      24              1.0000000000
       117        24  DCM       H1              0.5308062349       -2.6707726649       -0.7621230350  CLST      24              1.0000000000
       118        24  DCM       H2             -0.1691588726       -1.8891817070        0.7374771561  CLST      24              1.0000000000
       119        24  DCM       CL1             0.0880378758       -4.2556904499        0.9757123882  CLST      24              1.0000000000
       120        24  DCM       CL2             2.1918938117       -2.2226360097        0.8993048800  CLST      24              1.0000000000
       121        25  DCM       C               3.3185109442        0.0632144861       -1.8854411898  CLST      25              1.0000000000
       122        25  DCM       H1              3.4968563459        0.8535324120       -2.6448476866  CLST      25              1.0000000000
       123        25  DCM       H2              3.2788959777        0.4926643662       -0.8619752200  CLST      25              1.0000000000
       124        25  DCM       CL1             1.7628022396       -0.7429290197       -2.2397752091  CLST      25              1.0000000000
       125        25  DCM       CL2             4.6484790550       -1.1286988486       -1.9625175804  CLST      25              1.0000000000
       126        26  DCM       C              -0.0451989423       -1.2082688717        2.3609181655  CLST      26              1.0000000000
       127        26  DCM       H1              0.4092932835       -0.2708886602        1.9792525507  CLST      26              1.0000000000
       128        26  DCM       H2              0.6177812403       -2.0769566483        2.1691662579  CLST      26              1.0000000000
       129        26  DCM       CL1            -0.2977357620       -1.0574494457        4.1235391136  CLST      26              1.0000000000
       130        26  DCM       CL2            -1.6100952993       -1.4770825614        1.5387595059  CLST      26              1.0000000000
       131        27  DCM       C              -0.0859706811       -3.3171489395       -2.0932724667  CLST      27              1.0000000000
       132        27  DCM       H1             -0.6969416464       -3.1872963023       -3.0113281222  CLST      27              1.0000000000
       133        27  DCM       H2              0.1945220967       -4.3812764574       -1.9500005494  CLST      27              1.0000000000
       134        27  DCM       CL1             1.4024776213       -2.3420739937       -2.2386649225  CLST      27              1.0000000000
       135        27  DCM       CL2            -1.0290472903       -2.7676843310       -0.6785689365  CLST      27              1.0000000000
       136        28  DCM       C               0.8496824420        1.0887399979        0.8961001705  CLST      28              1.0000000000
       137        28  DCM       H1              1.2228264495        0.0893220789        0.5911325716  CLST      28              1.0000000000
       138        28  DCM       H2              1.6780405175        1.8229954706        0.9589142353  CLST      28              1.0000000000
       139        28  DCM       CL1            -0.3352761405        1.6524143075       -0.3132073911  CLST      28              1.0000000000
       140        28  DCM       CL2             0.0698599106        0.9591842719        2.4971813595  CLST      28              1.0000000000
       141        29  DCM       C              -2.8309183041        0.6287782420        2.6792695101  CLST      29              1.0000000000
       142        29  DCM       H1             -2.4961303166        0.4783751450        3.7273832533  CLST      29              1.0000000000
       143        29  DCM       H2             -3.5450476302       -0.1621804728        2.3706807072  CLST      29              1.0000000000
       144        29  DCM       CL1            -1.4112928903        0.5698212572        1.5968616588  CLST      29              1.0000000000
       145        29  DCM       CL2            -3.6390500102        2.2163327549        2.5376581092  CLST      29              1.0000000000
       146        30  DCM       C              -1.1054222933       -0.1695586269       -1.3146549895  CLST      30              1.0000000000
       147        30  DCM       H1             -0.6315934914        0.8331952776       -1.3137223489  CLST      30              1.0000000000
       148        30  DCM       H2             -1.0476683137       -0.6337771067       -2.3209987229  CLST      30              1.0000000000
       149        30  DCM       CL1            -0.2547969244       -1.2198198039       -0.1467575493  CLST      30              1.0000000000
       150        30  DCM       CL2            -2.8220333176       -0.0033505344       -0.8457220944  CLST      30              1.0000000000
       151        31  DCM       C               0.3263789472        2.2488552758        3.0439357113  CLST      31              1.0000000000
       152        31  DCM       H1              1.0799389663        2.7630581952        3.6767826944  CLST      31              1.0000000000
       153        31  DCM       H2             -0.4523457205        1.7628941368        3.6671686022  CLST      31              1.0000000000
       154        31  DCM       CL1            -0.4572565959        3.4465613152        1.9755571802  CLST      31              1.0000000000
       155        31  DCM       CL2             1.1425023299        1.0034124441        2.0571039812  CLST      31              1.0000000000
       156        32  DCM       C               0.7200337542       -2.2748631634        0.1548313085  CLST      32              1.0000000000
       157        32  DCM       H1              1.0787469357       -1.2338613115        0.2929437998  CLST      32              1.0000000000
       158        32  DCM       H2              1.5633176902       -2.9548850813       -0.0826106249  CLST      32              1.0000000000
       159        32  DCM       CL1            -0.0709873709       -2.8184252935        1.6607175748  CLST      32              1.0000000000
       160        32  DCM       CL2            -0.4563703678       -2.3120205353       -1.1886226863  CLST      32              1.0000000000
       161        33  DCM       C              -0.6700921829        1.1683933711        0.1386215670  CLST      33              1.0000000000
       162        33  DCM       H1             -0.6147510093        0.1537774926        0.5831336914  CLST      33              1.0000000000
       163        33  DCM       H2             -1.1890801487        1.8774573137        0.8166828547  CLST      33              1.0000000000
       164        33  DCM       CL1             0.9869691567        1.7596129742       -0.1451365890  CLST      33              1.0000000000
       165        33  DCM       CL2            -1.5582960525        1.0770270531       -1.4054132556  CLST      33              1.0000000000
       166        34  DCM       C              -2.3342501999       -3.0120877861       -3.2780277522  CLST      34              1.0000000000
       167        34  DCM       H1             -1.2440324596       -3.1846847320       -3.3973914463  CLST      34              1.0000000000
       168        34  DCM       H2             -2.9193294768       -3.6866523226       -3.9374354013  CLST      34              1.0000000000
       169        34  DCM       CL1            -2.7886363825       -3.3267124341       -1.5805421427  CLST      34              1.0000000000
       170        34  DCM       CL2            -2.7077514388       -1.3166752861       -3.7009091152  CLST      34              1.0000000000
       171        35  DCM       C               2.3446230146       -1.5427818898       -1.8305749966  CLST      35              1.0000000000
       172        35  DCM       H1              3.0679190141       -2.2671355412       -2.2615824104  CLST      35              1.0000000000
       173        35  DCM       H2              1.3236896167       -1.9767585912       -1.7795856267  CLST      35              1.0000000000
       174        35  DCM       CL1             2.3022147518       -0.0783406250       -2.8546779544  CLST      35              1.0000000000
       175        35  DCM       CL2             2.8702016106       -1.1097642667       -0.1793694606  CLST      35              1.0000000000
       176        36  DCM       C               0.8286263560       -0.3353849949       -1.3565608953  CLST      36              1.0000000000
       177        36  DCM       H1              0.3872277703        0.0045734770       -2.3173049422  CLST      36              1.0000000000
       178        36  DCM       H2              1.6238290262        0.3601492526       -1.0142209277  CLST      36              1.0000000000
       179        36  DCM       CL1            -0.4561054010       -0.4039865768       -0.1155605783  CLST      36              1.0000000000
       180        36  DCM       CL2             1.5352985729       -1.9610427190       -1.5870145454  CLST      36              1.0000000000
       181        37  DCM       C              -3.3672062328        2.1528503101        1.2580567595  CLST      37              1.0000000000
       182        37  DCM       H1             -3.1753429349        3.2020612354        0.9530652526  CLST      37              1.0000000000
       183        37  DCM       H2             -4.2634582184        2.0779373090        1.9089773261  CLST      37              1.0000000000
       184        37  DCM       CL1            -3.6323636636        1.1699038182       -0.2070542386  CLST      37              1.0000000000
       185        37  DCM       CL2            -1.9456124573        1.5427304880        2.1509864500  CLST      37              1.0000000000
       186        38  DCM       C               1.1002996656        0.5708669242       -0.5957440578  CLST      38              1.0000000000
       187        38  DCM       H1              0.8969508224        0.4935768263        0.4928922824  CLST      38              1.0000000000
       188        38  DCM       H2              2.1472615249        0.8839133090       -0.7824281908  CLST      38              1.0000000000
       189        38  DCM       CL1             0.8338779510       -1.0241169818       -1.3485058679  CLST      38              1.0000000000
       190        38  DCM       CL2            -0.0031370088        1.7801844144       -1.3127515511  CLST      38              1.0000000000
       191        39  DCM       C               1.5970130646       -2.8127266041       -1.2626706454  CLST      39              1.0000000000
       192        39  DCM       H1              0.5711343624       -2.4403600387       -1.0572577310  CLST      39              1.0000000000
       193        39  DCM       H2              1.6850423929       -3.1765701073       -2.3079374794  CLST      39              1.0000000000
       194        39  DCM       CL1             2.7563828980       -1.4762708818       -1.0138504417  CLST      39              1.0000000000
       195        39  DCM       CL2             1.9743860785       -4.1534149052       -0.1402091260  CLST      39              1.0000000000
       196        40  DCM       C              -0.9940056108       -3.6491125061       -0.1948482585  CLST      40              1.0000000000
       197        40  DCM       H1             -1.9570557320       -3.8745603640       -0.7001348291  CLST      40              1.0000000000
       198        40  DCM       H2             -1.0608542815       -3.8437034089        0.8962685854  CLST      40              1.0000000000
       199        40  DCM       CL1             0.2862076736       -4.6822785401       -0.8936488127  CLST      40              1.0000000000
       200        40  DCM       CL2            -0.5913439192       -1.9276087460       -0.4553141586  CLST      40              1.0000000000
       201        41  DCM       C               1.0527656436       -0.1972674243        2.0095879785  CLST      41              1.0000000000
       202        41  DCM       H1              2.0201261120       -0.2507035680        1.4664653938  CLST      41              1.0000000000
       203        41  DCM       H2              0.4461373688       -1.1077047649        1.8297382413  CLST      41              1.0000000000
       204        41  DCM       CL1             1.3736168877       -0.0530562916        3.7612440926  CLST      41              1.0000000000
       205        41  DCM       CL2             0.1388855102        1.2292621230        1.4407467763  CLST      41              1.0000000000
       206        42  DCM       C              -1.8198257068        0.8377659698       -1.5248985020  CLST      42              1.0000000000
       207        42  DCM       H1             -2.3172778694        0.3987816680       -2.4143356522  CLST      42              1.0000000000
       208        42  DCM       H2             -0.7603897191        0.5165962756       -1.4573578207  CLST      42              1.0000000000
       209        42  DCM       CL1            -1.8779610682        2.6155561898       -1.6472334210  CLST      42              1.0000000000
       210        42  DCM       CL2            -2.6834153290        0.3037440346       -0.0596027918  CLST      42              1.0000000000
       211        43  DCM       C              -0.7760484823       -2.2721772477       -2.9299601192  CLST      43              1.0000000000
       212        43  DCM       H1              0.1923047360       -1.8262465513       -2.6231841662  CLST      43              1.0000000000
       213        43  DCM       H2             -0.7703596923       -2.5251769345       -4.0094301878  CLST      43              1.0000000000
       214        43  DCM       CL1            -1.0774436277       -3.7610970818       -1.9836439213  CLST      43              1.0000000000
       215        43  DCM       CL2            -2.0719444602       -1.0798188331       -2.6321853075  CLST      43              1.0000000000
       216        44  DCM       C               2.0428547518       -1.9176652717       -3.0512364279  CLST      44              1.0000000000
       217        44  DCM       H1              2.7719288961       -1.3961692302       -2.3954131824  CLST      44              1.0000000000
       218        44  DCM       H2              1.9256433921       -2.9807747938       -2.7530986760  CLST      44              1.0000000000
       219        44  DCM       CL1             2.6259195769       -1.8479825756       -4.7398722685  CLST      44              1.0000000000
       220        44  DCM       CL2             0.4581228109       -1.1007060319       -2.9231024344  CLST      44              1.0000000000
       221        45  DCM       C              -0.2165548785        2.4500359438       -0.5990078850  CLST      45              1.0000000000
       222        45  DCM       H1             -1.1754434285        1.9944224888       -0.2743246851  CLST      45              1.0000000000
       223        45  DCM       H2             -0.3758853002        3.4682502330       -1.0111114271  CLST      45              1.0000000000
       224        45  DCM       CL1             0.8845487152        2.5541951448        0.8053398027  CLST      45              1.0000000000
       225        45  DCM       CL2             0.5125444677        1.4235376038       -1.8660248418  CLST      45              1.0000000000
       226        46  DCM       C              -1.2779886827        1.4031514604       -3.2756380310  CLST      46              1.0000000000
       227        46  DCM       H1             -0.3740053536        1.4032500322       -2.6306324628  CLST      46              1.0000000000
       228        46  DCM       H2             -2.1458518244        0.9583384089       -2.7444490749  CLST      46              1.0000000000
       229        46  DCM       CL1            -1.6756886266        3.0851491860       -3.7262000933  CLST      46              1.0000000000
       230        46  DCM       CL2            -0.9431731641        0.4423718612       -4.7448198361  CLST      46              1.0000000000
       231        47  DCM       C              -2.1308740225       -1.2999482909        1.2018943017  CLST      47              1.0000000000
       232        47  DCM       H1             -1.5056842732       -0.5162691266        1.6793947740  CLST      47              1.0000000000
       233        47  DCM       H2             -3.0958484259       -0.8804068099        0.8464493730  CLST      47              1.0000000000
       234        47  DCM       CL1            -1.2451077695       -1.9761553950       -0.1940741542  CLST      47              1.0000000000
       235        47  DCM       CL2            -2.4598696047       -2.5928297618        2.3921122652  CLST      47              1.0000000000
       236        48  DCM       C              -2.4305233623       -1.0504875354        0.6397253227  CLST      48              1.0000000000
       237        48  DCM       H1             -2.3109229175       -0.1762868872       -0.0340803364  CLST      48              1.0000000000
       238        48  DCM       H2             -2.3511893100       -2.0033753494        0.0742314478  CLST      48              1.0000000000
       239        48  DCM       CL1            -1.1469566116       -1.0064904287        1.8846403251  CLST      48              1.0000000000
       240        48  DCM       CL2            -4.0408568430       -0.9766752255        1.4142379445  CLST      48              1.0000000000
       241        49  DCM       C               0.8885176198        1.0170816743       -2.2456268277  CLST      49              1.0000000000
       242        49  DCM       H1              0.8341723980        1.8639555095       -2.9644229032  CLST      49              1.0000000000
       243        49  DCM       H2             -0.1129842540        0.7827978521       -1.8303362642  CLST      49              1.0000000000
       244        49  DCM       CL1             1.5264755299       -0.4319560640       -3.0745410209  CLST      49              1.0000000000
       245        49  DCM       CL2             1.9831905733        1.4659545069       -0.9075661834  CLST      49              1.0000000000
       246        50  DCM       C              -0.4394332888        0.5013375525        0.5670129305  CLST      50              1.0000000000
       247        50  DCM       H1             -1.5489081929        0.5024960902        0.6121859575  CLST      50              1.0000000000
       248        50  DCM       H2             -0.0611499977       -0.4556252560        0.1493786408  CLST      50              1.0000000000
       249        50  DCM       CL1             0.1060765248        1.8468191649       -0.4769797868  CLST      50              1.0000000000
       250        50  DCM       CL2             0.2073311891        0.7118291349        2.2202324105  CLST      50              1.0000000000
       251        51  DCM       C               1.4689747475        0.1129627760        0.2625927609  CLST      51              1.0000000000
       252        51  DCM       H1              0.8553409757        0.5185488829        1.0950725498  CLST      51              1.0000000000
       253        51  DCM       H2              1.5287702959       -0.9943785828        0.3171451928  CLST      51              1.0000000000
       254        51  DCM       CL1             0.7317953351        0.5788056578       -1.2981943603  CLST      51              1.0000000000
       255        51  DCM       CL2             3.1205981804        0.7862219527        0.3702824490  CLST      51              1.0000000000
       256        52  DCM       C              -0.0843060207        1.9210556664        2.1831254666  CLST      52              1.0000000000
       257        52  DCM       H1             -0.2322393299        2.9737915395        2.4971733660  CLST      52              1.0000000000
       258        52  DCM       H2             -0.9764704986        1.3054568395        2.4188621810  CLST      52              1.0000000000
       259        52  DCM       CL1             1.3299297488        1.2506678453        3.0397990661  CLST      52              1.0000000000
       260        52  DCM       CL2             0.2119169839        1.8809107735        0.4245743688  CLST      52              1.0000000000
       261        53  DCM       C              -0.9394425738        1.1818245739        1.4737849608  CLST      53              1.0000000000
       262        53  DCM       H1             -0.6506177176        2.2410795261        1.3196602988  CLST      53              1.0000000000
       263        53  DCM       H2             -2.0227848555        1.1023538985        1.7041717182  CLST      53              1.0000000000
       264        53  DCM       CL1            -0.5827953882        0.2588121454       -0.0151130883  CLST      53              1.0000000000
       265        53  DCM       CL2             0.0097459550        0.5194122417        2.8359666319  CLST      53              1.0000000000
       266        54  DCM       C              -1.7314032740       -1.3311462629        2.6789472657  CLST      54              1.0000000000
       267        54  DCM       H1             -2.4326603628       -2.1460653448        2.9547852996  CLST      54              1.0000000000
       268        54  DCM       H2             -0.6819608824       -1.6942914724        2.6573939562  CLST      54              1.0000000000
       269        54  DCM       CL1            -1.8643440568       -0.0191789694        3.8839722596  CLST      54              1.0000000000
       270        54  DCM       CL2            -2.1647186177       -0.7127980687        1.0591067648  CLST      54              1.0000000000
       271        55  DCM       C               2.6010741519       -0.9107597520       -1.4832092345  CLST      55              1.0000000000
       272        55  DCM       H1              1.8026402349       -0.1518211573       -1.6207456707  CLST      55              1.0000000000
       273        55  DCM       H2              2.1905520557       -1.9400933125       -1.5472333668  CLST      55              1.0000000000
       274        55  DCM       CL1             3.8317818151       -0.6992138152       -2.7606664990  CLST      55              1.0000000000
       275        55  DCM       CL2             3.3513086999       -0.6818156205        0.1220567903  CLST      55              1.0000000000
       276        56  DCM       C               2.5992116106        2.0388560794       -1.1608845321  CLST      56              1.0000000000
       277        56  DCM       H1              1.5401301675        2.1575418096       -1.4723443179  CLST      56              1.0000000000
       278        56  DCM       H2              2.8420287026        0.9733700331       -0.9618215881  CLST      56              1.0000000000
       279        56  DCM       CL1             3.6575475621        2.6312652424       -2.4730618684  CLST      56              1.0000000000
       280        56  DCM       CL2             2.8740949257        2.9994863456        0.3227691257  CLST      56              1.0000000000
       281        57  DCM       C              -0.5269575374       -0.0070483656       -0.4565083763  CLST      57              1.0000000000
       282        57  DCM       H1              0.0377936584       -0.3265367664       -1.3559277079  CLST      57              1.0000000000
       283        57  DCM       H2             -1.4288209749        0.5716156132       -0.7425737591  CLST      57              1.0000000000
       284        57  DCM       CL1            -1.0256212095       -1.4569394682        0.4596939877  CLST      57              1.0000000000
       285        57  DCM       CL2             0.5233165680        1.0177667921        0.5614105506  CLST      57              1.0000000000
       286        58  DCM       C               0.2692969373       -2.1766854248       -1.7734016083  CLST      58              1.0000000000
       287        58  DCM       H1             -0.5287174627       -1.6132239381       -2.3016728446  CLST      58              1.0000000000
       288        58  DCM       H2              0.0344680921       -3.2614800452       -1.7396692443  CLST      58              1.0000000000
       289        58  DCM       CL1             1.8172626042       -1.9438596384       -2.6344704766  CLST      58              1.0000000000
       290        58  DCM       CL2             0.4105992893       -1.5578148476       -0.1028225479  CLST      58              1.0000000000
       291        59  DCM       C               2.0937136548        2.0801807750        0.2665881347  CLST      59              1.0000000000
       292        59  DCM       H1              2.0882268613        2.9376848192        0.9724350116  CLST      59              1.0000000000
       293        59  DCM       H2              1.5880227138        2.3457142529       -0.6847328165  CLST      59              1.0000000000
       294        59  DCM       CL1             3.7829525776        1.6122366246       -0.0841557851  CLST      59              1.0000000000
       295        59  DCM       CL2             1.2325127262        0.7069378714        1.0177221786  CLST      59              1.0000000000
       296        60  DCM       C              -3.5771961298        1.5452875884        1.6538080423  CLST      60              1.0000000000
       297        60  DCM       H1             -4.0950528217        1.8157930719        0.7093614593  CLST      60              1.0000000000
       298        60  DCM       H2             -4.0353787186        0.6468063809        2.1189222127  CLST      60              1.0000000000
       299        60  DCM       CL1            -1.8584162256        1.2070827693        1.2982336421  CLST      60              1.0000000000
       300        60  DCM       CL2            -3.6963148157        2.9157036810        2.7932388370  CLST      60              1.0000000000
       301        61  DCM       C              -0.1729882627       -1.6235247908       -2.2382531429  CLST      61              1.0000000000
       302        61  DCM       H1             -0.7026066318       -0.8548083023       -1.6369714551  CLST      61              1.0000000000
       303        61  DCM       H2              0.8505932280       -1.2855970521       -2.5030339713  CLST      61              1.0000000000
       304        61  DCM       CL1            -1.0951799312       -1.9294800282       -3.7389235504  CLST      61              1.0000000000
       305        61  DCM       CL2            -0.0576357283       -3.1290000899       -1.2822206322  CLST      61              1.0000000000
       306        62  DCM       C              -1.6834846198        2.2347957109        0.1017951821  CLST      62              1.0000000000
       307        62  DCM       H1             -0.8463516875        2.1015816008        0.8194271422  CLST      62              1.0000000000
       308        62  DCM       H2             -2.5202423117        1.5418386211        0.3311455555  CLST      62              1.0000000000
       309        62  DCM       CL1            -2.2775455189        3.9182531240        0.2022999376  CLST      62              1.0000000000
       310        62  DCM       CL2            -1.0899425370        1.9011785404       -1.5505125006  CLST      62              1.0000000000
       311        63  DCM       C               2.0204236483        0.1147587768        2.0971625786  CLST      63              1.0000000000
       312        63  DCM       H1              1.4697855454        1.0319625996        2.3961628734  CLST      63              1.0000000000
       313        63  DCM       H2              2.9155891097       -0.0373990891        2.7362277269  CLST      63              1.0000000000
       314        63  DCM       CL1             0.9397220087       -1.3000044578        2.2646969884  CLST      63              1.0000000000
       315        63  DCM       CL2             2.5407369760        0.2794319049        0.3950994288  CLST      63              1.0000000000
       316        64  DCM       C               0.7385504001       -1.3393815174        2.7763596572  CLST      64              1.0000000000
       317        64  DCM       H1             -0.3114712988       -1.6413507245        2.5792194367  CLST      64              1.0000000000
       318        64  DCM       H2              1.1719339251       -1.9304175485        3.6094942011  CLST      64              1.0000000000
       319        64  DCM       CL1             1.7081381795       -1.6149442659        1.3028091558  CLST      64              1.0000000000
       320        64  DCM       CL2             0.7742105623        0.3918287359        3.2131345265  CLST      64              1.0000000000
       321        65  DCM       C              -2.8316115195       -0.8449514119        1.5593202260  CLST      65              1.0000000000
       322        65  DCM       H1             -2.6253980638       -1.9224429577        1.3966054737  CLST      65              1.0000000000
       323        65  DCM       H2             -2.9310905038       -0.6144137539        2.6405773742  CLST      65              1.0000000000
       324        65  DCM       CL1            -1.4733765600        0.1042888608        0.8920682673  CLST      65              1.0000000000
       325        65  DCM       CL2            -4.3488963981       -0.4049976364        0.7206946016  CLST      65              1.0000000000
       326        66  DCM       C               1.3860480252       -1.9328622497       -0.3231784478  CLST      66              1.0000000000
       327        66  DCM       H1              1.5558343339       -2.7878903517        0.3654003346  CLST      66              1.0000000000
       328        66  DCM       H2              1.7532243085       -2.1645221951       -1.3451373849  CLST      66              1.0000000000
       329        66  DCM       CL1            -0.3657723322       -1.5852261236       -0.4008394890  CLST      66              1.0000000000
       330        66  DCM       CL2             2.2611954937       -0.5031432640        0.2971870276  CLST      66              1.0000000000
       331        67  DCM       C              -1.9380425961       -2.4154948383       -1.0167953719  CLST      67              1.0000000000
       332        67  DCM       H1             -1.7979637169       -1.3139350375       -1.0282291156  CLST      67              1.0000000000
       333        67  DCM       H2             -1.2936962530       -2.8914294772       -0.2478701924  CLST      67              1.0000000000
       334        67  DCM       CL1            -3.6497725236       -2.7792767785       -0.6503922851  CLST      67              1.0000000000
       335        67  DCM       CL2            -1.5083693728       -3.0751285967       -2.6219670670  CLST      67              1.0000000000
       336        68  DCM       C               0.3296251548        2.1782935046       -3.2024009309  CLST      68              1.0000000000
       337        68  DCM       H1              1.3867860842        1.8644413977       -3.3338276988  CLST      68              1.0000000000
       338        68  DCM       H2              0.0118243369        2.8627369633       -4.0173704643  CLST      68              1.0000000000
       339        68  DCM       CL1            -0.7128516061        0.7281405455       -3.2197901013  CLST      68              1.0000000000
       340        68  DCM       CL2             0.1590752057        3.0211706946       -1.6360140682  CLST      68              1.0000000000
       341        69  DCM       C              -1.5472052554        0.3470542577        2.1303997806  CLST      69              1.0000000000
       342        69  DCM       H1             -2.5964069683        0.1263993675        1.8425585752  CLST      69              1.0000000000
       343        69  DCM       H2             -1.2808991821        1.3965418464        1.8854851622  CLST      69              1.0000000000
       344        69  DCM       CL1            -1.3611098492        0.0969881820        3.8906898689  CLST      69              1.0000000000
       345        69  DCM       CL2            -0.4574097162       -0.7517859798        1.2377367904  CLST      69              1.0000000000
       346        70  DCM       C               3.7884984364        0.2486598427        1.1797309024  CLST      70              1.0000000000
       347        70  DCM       H1              4.8268934694        0.5884600510        1.3764734395  CLST      70              1.0000000000
       348        70  DCM       H2              3.0700185342        1.0907375659        1.2693404563  CLST      70              1.0000000000
       349        70  DCM       CL1             3.7006354757       -0.4179946072       -0.4762382107  CLST      70              1.0000000000
       350        70  DCM       CL2             3.3534292046       -1.0161740885        2.3657087514  CLST      70              1.0000000000
       351        71  DCM       C               1.2928369323        3.1168704993        0.1383658058  CLST      71              1.0000000000
       352        71  DCM       H1              0.8768296990        2.5830614728       -0.7400774298  CLST      71              1.0000000000
       353        71  DCM       H2              0.6478423017        3.9698098137        0.4375118741  CLST      71              1.0000000000
       354        71  DCM       CL1             1.4210733125        1.9774910292        1.5057352227  CLST      71              1.0000000000
       355        71  DCM       CL2             2.9121650978        3.7388955704       -0.2751782465  CLST      71              1.0000000000
       356        72  DCM       C              -2.0833923458       -2.8782652255        0.5923590175  CLST      72              1.0000000000
       357        72  DCM       H1             -2.6006001154       -2.9699860246       -0.3855197210  CLST      72              1.0000000000
       358        72  DCM       H2             -2.1155891952       -1.8315430236        0.9626362680  CLST      72              1.0000000000
       359        72  DCM       CL1            -2.8893137766       -3.9371437771        1.7854362274  CLST      72              1.0000000000
       360        72  DCM       CL2            -0.3761346844       -3.3730203687        0.3975727005  CLST      72              1.0000000000
       361        73  DCM       C              -1.3603685530        2.0950048240       -1.8752222449  CLST      73              1.0000000000
       362        73  DCM       H1             -1.1189714338        1.1354887325       -1.3714305082  CLST      73              1.0000000000
       363        73  DCM       H2             -1.7544527964        2.8357811049       -1.1482723239  CLST      73              1.0000000000
       364        73  DCM       CL1             0.1183420193        2.7507270641       -2.6323537349  CLST      73              1.0000000000
       365        73  DCM       CL2            -2.5942676515        1.8016416228       -3.1333762073  CLST      73              1.0000000000
       366        74  DCM       C               0.8543886093       -2.8490421146       -0.8270134260  CLST      74              1.0000000000
       367        74  DCM       H1              1.0227814526       -3.9376345409       -0.9721472857  CLST      74              1.0000000000
       368        74  DCM       H2              1.1742329715       -2.5239239243        0.1851578438  CLST      74              1.0000000000
       369        74  DCM       CL1             1.7953039371       -1.9478494798       -2.0504040772  CLST      74              1.0000000000
       370        74  DCM       CL2            -0.8868845848       -2.4992067267       -1.0211217420  CLST      74              1.0000000000
       371        75  DCM       C              -0.5014537156       -2.7355954471        3.0949817022  CLST      75              1.0000000000
       372        75  DCM       H1             -1.2968752129       -2.4221198767        3.8018905812  CLST      75              1.0000000000
       373        75  DCM       H2              0.1952119459       -3.4563019405        3.5727467526  CLST      75              1.0000000000
       374        75  DCM       CL1            -1.2645904323       -3.5114280091        1.6788954346  CLST      75              1.0000000000
       375        75  DCM       CL2             0.4148761090       -1.2904673324        2.5816215422  CLST      75              1.0000000000
       376        76  DCM       C               2.3430452839        2.7077204277       -2.3709361424  CLST      76              1.0000000000
       377        76  DCM       H1              3.1205318589        2.8834149578       -1.5977805379  CLST      76              1.0000000000
       378        76  DCM       H2              1.4007680785        2.3387499768       -1.9133586901  CLST      76              1.0000000000
       379        76  DCM       CL1             2.0112254790        4.2428506530       -3.2228125189  CLST      76              1.0000000000
       380        76  DCM       CL2             2.9428310812        1.4862509040       -3.5296531334  CLST      76              1.0000000000
       381        77  DCM       C               2.6567009493       -0.3442775403        0.1109299922  CLST      77              1.0000000000
       382        77  DCM       H1              1.7211391427       -0.3020162246       -0.4861673560  CLST      77              1.0000000000
       383        77  DCM       H2              2.5075439045       -0.9210744141        1.0482718032  CLST      77              1.0000000000
       384        77  DCM       CL1             3.9283486032       -1.1372063116       -0.8623139201  CLST      77              1.0000000000
       385        77  DCM       CL2             3.1592996216        1.3213206094        0.5228044502  CLST      77              1.0000000000
       386        78  DCM       C              -0.8275952551       -3.0862572568        0.0449380005  CLST      78              1.0000000000
       387        78  DCM       H1             -1.6840090567       -2.5181871573        0.4643613260  CLST      78              1.0000000000
       388        78  DCM       H2             -0.1748890568       -3.4787634045        0.8533614336  CLST      78              1.0000000000
       389        78  DCM       CL1            -1.4579406961       -4.4543144084       -0.9162357107  CLST      78              1.0000000000
       390        78  DCM       CL2             0.1319167994       -2.0001332061       -0.9998170958  CLST      78              1.0000000000
       391        79  DCM       C               2.1910395019       -1.4973111367        2.2181200357  CLST      79              1.0000000000
       392        79  DCM       H1              1.4924050818       -0.6611065596        2.0050099234  CLST      79              1.0000000000
       393        79  DCM       H2              2.5477389992       -1.9703914091        1.2790308799  CLST      79              1.0000000000
       394        79  DCM       CL1             3.5960730650       -0.8611349609        3.1159297371  CLST      79              1.0000000000
       395        79  DCM       CL2             1.3493206065       -2.7221096041        3.2108775494  CLST      79              1.0000000000
       396        80  DCM       C               2.6423703606        2.4515771671        2.3676276365  CLST      80              1.0000000000
       397        80  DCM       H1              1.5619304599        2.2998774053        2.1624896549  CLST      80              1.0000000000
       398        80  DCM       H2              3.2428971562        1.6150672726        1.9539594699  CLST      80              1.0000000000
       399        80  DCM       CL1             2.9000923036        2.5394777783        4.1347387424  CLST      80              1.0000000000
       400        80  DCM       CL2             3.1666638751        3.9773412072        1.6036783543  CLST      80              1.0000000000
       401        81  DCM       C              -1.0204828131       -1.6856398339       -0.1061983343  CLST      81              1.0000000000
       402        81  DCM       H1             -1.8956160125       -1.9735349104        0.5112737082  CLST      81              1.0000000000
       403        81  DCM       H2             -1.1374417876       -0.6582418954       -0.5116227087  CLST      81              1.0000000000
       404        81  DCM       CL1             0.4482898386       -1.7500789957        0.9093766215  CLST      81              1.0000000000
       405        81  DCM       CL2            -0.8736032163       -2.8353058710       -1.4658378416  CLST      81              1.0000000000
       406        82  DCM       C               0.8689547368        0.1856922297       -1.4886522266  CLST      82              1.0000000000
       407        82  DCM       H1              1.7693433787        0.7690327664       -1.2028696319  CLST      82              1.0000000000
       408        82  DCM       H2              0.9166870404       -0.1217837263       -2.5540275995  CLST      82              1.0000000000
       409        82  DCM       CL1             0.7712732164       -1.2794808747       -0.4687179317  CLST      82              1.0000000000
       410        82  DCM       CL2            -0.5845806316        1.1968897858       -1.2416764064  CLST      82              1.0000000000
       411        83  DCM       C              -1.6646562870       -1.0498241309        0.1213625829  CLST      83              1.0000000000
       412        83  DCM       H1             -2.4887849513       -1.5503562082        0.6710964268  CLST      83              1.0000000000
       413        83  DCM       H2             -0.6977736007       -1.1902983005        0.6482155958  CLST      83              1.0000000000
       414        83  DCM       CL1            -2.0230104669        0.6963587896        0.0122142500  CLST      83              1.0000000000
       415        83  DCM       CL2            -1.5385267326       -1.7492298356       -1.5176720717  CLST      83              1.0000000000
       416        84  DCM       C              -2.0666357042       -0.6292007592       -3.4699785475  CLST      84              1.0000000000
       417        84  DCM       H1             -2.9276441236       -0.2388756104       -4.0515676060  CLST      84              1.0000000000
       418        84  DCM       H2             -2.1635353380       -1.7219188185       -3.2986397131  CLST      84              1.0000000000
       419        84  DCM       CL1            -0.5599377422       -0.3110470323       -4.3784550666  CLST      84              1.0000000000
       420        84  DCM       CL2            -2.0112939641        0.2041839714       -1.8899057832  CLST      84              1.0000000000
       421        85  DCM       C              -3.2055137208       -0.6461478809       -1.8116841124  CLST      85              1.0000000000
       422        85  DCM       H1             -4.2367437200       -0.5060420299       -1.4235540261  CLST      85              1.0000000000
       423        85  DCM       H2             -3.1756129106       -1.4284934257       -2.5994435092  CLST      85              1.0000000000
       424        85  DCM       CL1            -2.6335805625        0.8982537896       -2.5062485973  CLST      85              1.0000000000
       425        85  DCM       CL2            -2.1400817405       -1.1383505673       -0.4631502813  CLST      85              1.0000000000
       426        86  DCM       C               0.9515563983        3.0896443483        2.0673800878  CLST      86              1.0000000000
       427        86  DCM       H1              1.6477350236        2.4363082787        2.6346372318  CLST      86              1.0000000000
       428        86  DCM       H2              1.4869813575        3.6418291168        1.2665042504  CLST      86              1.0000000000
       429        86  DCM       CL1             0.2163334950        4.2678464827        3.1921028367  CLST      86              1.0000000000
       430        86  DCM       CL2            -0.3221611498        2.0761435673        1.3270396285  CLST      86              1.0000000000
       431        87  DCM       C              -0.8739369531        3.2000153273        0.8247790407  CLST      87              1.0000000000
       432        87  DCM       H1             -0.0755750407        3.1288111793        0.0561696369  CLST      87              1.0000000000
       433        87  DCM       H2             -1.4943637913        2.2788495992        0.8470097972  CLST      87              1.0000000000
       434        87  DCM       CL1            -0.1157644973        3.4248413983        2.4243985096  CLST      87              1.0000000000
       435        87  DCM       CL2            -1.9212844613        4.6002656951        0.4564093057  CLST      87              1.0000000000
       436        88  DCM       C               2.3862791536       -1.1594639794       -0.7357302910  CLST      88              1.0000000000
       437        88  DCM       H1              2.7730710724       -1.9197683662       -1.4449866724  CLST      88              1.0000000000
       438        88  DCM       H2              3.0020360939       -1.1217044827        0.1866402627  CLST      88              1.0000000000
       439        88  DCM       CL1             2.4274797737        0.4409229980       -1.5263219360  CLST      88              1.0000000000
       440        88  DCM       CL2             0.7056701935       -1.5781991556       -0.2976817333  CLST      88              1.0000000000
       441        89  DCM       C              -0.3123459984        3.5900066720        1.1121689142  CLST      89              1.0000000000
       442        89  DCM       H1              0.5993658295        4.1441045602        0.8041746669  CLST      89              1.0000000000
       443        89  DCM       H2             -1.0101402480        4.2492482013        1.6690817356  CLST      89              1.0000000000
       444        89  DCM       CL1            -1.1373263526        2.9716787072       -0.3466658716  CLST      89              1.0000000000
       445        89  DCM       CL2             0.1607437430        2.2225103265        2.1608379265  CLST      89              1.0000000000
       446        90  DCM       C              -0.8401834454        2.4229770956        2.9518051188  CLST      90              1.0000000000
       447        90  DCM       H1             -1.7350908478        1.7667882646        2.9809087433  CLST      90              1.0000000000
       448        90  DCM       H2             -0.7134782197        2.8809846643        1.9482360844  CLST      90              1.0000000000
       449        90  DCM       CL1            -1.0341500675        3.7238139552        4.1627357671  CLST      90              1.0000000000
       450        90  DCM       CL2             0.6094425780        1.4476328694        3.3309655190  CLST      90              1.0000000000
       451        91  DCM       C              -2.5274275338        1.9335488734        1.1247501900  CLST      91              1.0000000000
       452        91  DCM       H1             -1.6032728506        2.3270434876        1.5970315485  CLST      91              1.0000000000
       453        91  DCM       H2             -3.3624778460        2.6608799362        1.2161617020  CLST      91              1.0000000000
       454        91  DCM       CL1            -2.2091306694        1.6264539623       -0.6068075762  CLST      91              1.0000000000
       455        91  DCM       CL2            -2.9899351769        0.4103144091        1.9372982736  CLST      91              1.0000000000
       456        92  DCM       C              -2.1574975798        0.4160616075        2.2842600849  CLST      92              1.0000000000
       457        92  DCM       H1             -1.5206947167        1.2958547700        2.5174051315  CLST      92              1.0000000000
       458        92  DCM       H2             -2.1845305643        0.2239312010        1.1916222891  CLST      92              1.0000000000
       459        92  DCM       CL1            -1.4962687762       -1.0231050442        3.1134728186  CLST      92              1.0000000000
       460        92  DCM       CL2            -3.8205738571        0.7317970143        2.8584315602  CLST      92              1.0000000000
