* CHARMM CGENFF SD/ABNR BEFORE MLPOT (MM ONLY)
*  DATE:     6/28/26      2:38:50      CREATED BY USER: boittier
*
       460  EXT
         1         1  DCM       C              -0.3466165871       -7.1156722461       -2.5097424135  CLST      1               1.0000000000
         2         1  DCM       H1              0.5946603223       -6.7648280446       -2.0360178505  CLST      1               1.0000000000
         3         1  DCM       H2             -1.0665859608       -7.4791008503       -1.7462051108  CLST      1               1.0000000000
         4         1  DCM       CL1            -1.0875907840       -5.7591387473       -3.4088102287  CLST      1               1.0000000000
         5         1  DCM       CL2             0.0316925838       -8.4535226712       -3.6337637344  CLST      1               1.0000000000
         6         2  DCM       C              -6.3570368047      -15.6841082710       -2.4335612697  CLST      2               1.0000000000
         7         2  DCM       H1             -5.2722833550      -15.6610626159       -2.6703104627  CLST      2               1.0000000000
         8         2  DCM       H2             -6.6551737137      -14.7907358827       -1.8451448564  CLST      2               1.0000000000
         9         2  DCM       CL1            -7.2846943427      -15.7095053864       -3.9610248058  CLST      2               1.0000000000
        10         2  DCM       CL2            -6.7119091931      -17.1530885275       -1.4811604702  CLST      2               1.0000000000
        11         3  DCM       C               1.0769988368      -11.5624055066       11.7329923251  CLST      3               1.0000000000
        12         3  DCM       H1              0.4832834735      -11.8715109649       12.6192997550  CLST      3               1.0000000000
        13         3  DCM       H2              0.7767537599      -10.5516093348       11.3835293360  CLST      3               1.0000000000
        14         3  DCM       CL1             2.8089076328      -11.5343139361       12.1751554928  CLST      3               1.0000000000
        15         3  DCM       CL2             0.8075325243      -12.7378090815       10.4130909197  CLST      3               1.0000000000
        16         4  DCM       C               3.1885837257       14.9773551661       -6.3619889555  CLST      4               1.0000000000
        17         4  DCM       H1              2.3321287134       15.0155937243       -5.6561837185  CLST      4               1.0000000000
        18         4  DCM       H2              3.2300231628       15.8920443532       -6.9902707029  CLST      4               1.0000000000
        19         4  DCM       CL1             4.7068937602       14.8443875523       -5.4272158358  CLST      4               1.0000000000
        20         4  DCM       CL2             3.0044007135       13.5508043859       -7.4238622923  CLST      4               1.0000000000
        21         5  DCM       C              10.2574600455       11.5634706483        9.7973788280  CLST      5               1.0000000000
        22         5  DCM       H1             10.5433698441       11.8689400324       10.8257171890  CLST      5               1.0000000000
        23         5  DCM       H2             10.2725422551       10.4580916515        9.6922415730  CLST      5               1.0000000000
        24         5  DCM       CL1             8.6064715866       12.1559380126        9.4551353292  CLST      5               1.0000000000
        25         5  DCM       CL2            11.4129590761       12.2778780795        8.6339641639  CLST      5               1.0000000000
        26         6  DCM       C               8.3957960629        8.0540327994       -2.0178034430  CLST      6               1.0000000000
        27         6  DCM       H1              9.2617795393        8.7474341590       -2.0333310085  CLST      6               1.0000000000
        28         6  DCM       H2              7.5035322648        8.5375672074       -1.5669060954  CLST      6               1.0000000000
        29         6  DCM       CL1             8.0133334727        7.5716673032       -3.6954996739  CLST      6               1.0000000000
        30         6  DCM       CL2             8.8303588862        6.6139144537       -1.0519078187  CLST      6               1.0000000000
        31         7  DCM       C             -10.3753763624      -16.7315651558       -1.8720599702  CLST      7               1.0000000000
        32         7  DCM       H1            -11.4042043415      -16.8172506512       -2.2807748307  CLST      7               1.0000000000
        33         7  DCM       H2             -9.6241305957      -17.1070926554       -2.5986845190  CLST      7               1.0000000000
        34         7  DCM       CL1           -10.0324223488      -15.0133706411       -1.5151403079  CLST      7               1.0000000000
        35         7  DCM       CL2           -10.2636307307      -17.6980831650       -0.3722966876  CLST      7               1.0000000000
        36         8  DCM       C              -0.5973679112       13.2549898526       -7.8905987875  CLST      8               1.0000000000
        37         8  DCM       H1             -0.2977618333       12.2618711855       -7.4935409363  CLST      8               1.0000000000
        38         8  DCM       H2              0.1025194622       13.5934316099       -8.6831973947  CLST      8               1.0000000000
        39         8  DCM       CL1            -2.2418539586       13.1371084880       -8.5805356203  CLST      8               1.0000000000
        40         8  DCM       CL2            -0.5858265539       14.4451689702       -6.5562930658  CLST      8               1.0000000000
        41         9  DCM       C              -5.6277515973        0.9509980475      -10.5700195100  CLST      9               1.0000000000
        42         9  DCM       H1             -5.4104336217        0.9334707368       -9.4822448021  CLST      9               1.0000000000
        43         9  DCM       H2             -6.2584843199        1.8254776208      -10.8376495555  CLST      9               1.0000000000
        44         9  DCM       CL1            -4.0834287645        1.0491748125      -11.4635068359  CLST      9               1.0000000000
        45         9  DCM       CL2            -6.4920875591       -0.5502675050      -11.0106308514  CLST      9               1.0000000000
        46        10  DCM       C             -11.5323027098       -5.5910998503        3.1858451694  CLST      10              1.0000000000
        47        10  DCM       H1            -12.6372390072       -5.5000657490        3.1463418115  CLST      10              1.0000000000
        48        10  DCM       H2            -11.1733093551       -6.4027489301        2.5187979090  CLST      10              1.0000000000
        49        10  DCM       CL1           -10.8003285344       -4.0450911715        2.6663251671  CLST      10              1.0000000000
        50        10  DCM       CL2           -11.0486996849       -5.9604986891        4.8660958463  CLST      10              1.0000000000
        51        11  DCM       C              18.2204350509       -9.6126919366      -11.0660536669  CLST      11              1.0000000000
        52        11  DCM       H1             18.4936742816      -10.6422663836      -11.3800548818  CLST      11              1.0000000000
        53        11  DCM       H2             17.1247244973       -9.4509565169      -11.1429124458  CLST      11              1.0000000000
        54        11  DCM       CL1            19.0587722947       -8.4401927376      -12.1224532152  CLST      11              1.0000000000
        55        11  DCM       CL2            18.7249647976       -9.3681967603       -9.3685881260  CLST      11              1.0000000000
        56        12  DCM       C              13.7082585493       14.4233244028       15.4512580679  CLST      12              1.0000000000
        57        12  DCM       H1             12.9001539441       14.2903876963       16.2012415110  CLST      12              1.0000000000
        58        12  DCM       H2             13.2901888680       14.6755613502       14.4537015620  CLST      12              1.0000000000
        59        12  DCM       CL1            14.7830504082       15.7493646330       15.9828095389  CLST      12              1.0000000000
        60        12  DCM       CL2            14.6407142843       12.9033152580       15.3259802570  CLST      12              1.0000000000
        61        13  DCM       C               4.6275143764       -7.9498840033       -0.5079783649  CLST      13              1.0000000000
        62        13  DCM       H1              4.7530298399       -7.9205149920       -1.6109136525  CLST      13              1.0000000000
        63        13  DCM       H2              5.2318120023       -7.1583587478       -0.0163048777  CLST      13              1.0000000000
        64        13  DCM       CL1             2.9021269486       -7.6985125100       -0.1094810486  CLST      13              1.0000000000
        65        13  DCM       CL2             5.1611015049       -9.5464918727        0.0935163156  CLST      13              1.0000000000
        66        14  DCM       C               8.8788125007      -12.7620936513       12.0541468235  CLST      14              1.0000000000
        67        14  DCM       H1              8.4094037385      -12.5956682900       13.0468869710  CLST      14              1.0000000000
        68        14  DCM       H2              8.3726601098      -12.1625174455       11.2682514207  CLST      14              1.0000000000
        69        14  DCM       CL1            10.5995453361      -12.2846157029       12.1362043042  CLST      14              1.0000000000
        70        14  DCM       CL2             8.7541649453      -14.4947046772       11.6353755922  CLST      14              1.0000000000
        71        15  DCM       C              13.9888204384       10.2779837371       -4.6234200338  CLST      15              1.0000000000
        72        15  DCM       H1             14.4052287623        9.4952955684       -3.9548389487  CLST      15              1.0000000000
        73        15  DCM       H2             13.1324054959        9.8858546398       -5.2112708770  CLST      15              1.0000000000
        74        15  DCM       CL1            13.4298199637       11.6542971082       -3.6287691176  CLST      15              1.0000000000
        75        15  DCM       CL2            15.2673880276       10.8208962899       -5.7483206360  CLST      15              1.0000000000
        76        16  DCM       C              -3.0178370430       -0.4045336784       -6.9087948858  CLST      16              1.0000000000
        77        16  DCM       H1             -2.7193275176        0.0098350780       -5.9225563625  CLST      16              1.0000000000
        78        16  DCM       H2             -2.6073384801       -1.4264300253       -7.0551567828  CLST      16              1.0000000000
        79        16  DCM       CL1            -4.8023606305       -0.4745533477       -6.9920289151  CLST      16              1.0000000000
        80        16  DCM       CL2            -2.3935758264        0.6633516770       -8.1992152048  CLST      16              1.0000000000
        81        17  DCM       C              -0.6264440818       16.8477924013       -9.4042864619  CLST      17              1.0000000000
        82        17  DCM       H1             -0.9703251994       17.5108732104       -8.5823261372  CLST      17              1.0000000000
        83        17  DCM       H2             -1.2004018003       15.8973898811       -9.4159018486  CLST      17              1.0000000000
        84        17  DCM       CL1            -0.8606130166       17.6848794735      -10.9658183996  CLST      17              1.0000000000
        85        17  DCM       CL2             1.1074138906       16.4804694404       -9.1693102217  CLST      17              1.0000000000
        86        18  DCM       C              16.1303064719       -6.6643622546      -14.0445815134  CLST      18              1.0000000000
        87        18  DCM       H1             15.3219500567       -6.1265210949      -14.5838470463  CLST      18              1.0000000000
        88        18  DCM       H2             16.7428671597       -7.2725465002      -14.7430673664  CLST      18              1.0000000000
        89        18  DCM       CL1            17.1861715799       -5.4682576010      -13.2378254554  CLST      18              1.0000000000
        90        18  DCM       CL2            15.3930565887       -7.7453922641      -12.8267271590  CLST      18              1.0000000000
        91        19  DCM       C              11.1533635597      -15.0771957659       15.1835438905  CLST      19              1.0000000000
        92        19  DCM       H1             12.0141518879      -14.6032941679       14.6663128854  CLST      19              1.0000000000
        93        19  DCM       H2             11.4524957040      -15.4818227917       16.1735515121  CLST      19              1.0000000000
        94        19  DCM       CL1             9.8741716630      -13.8516579213       15.4215516627  CLST      19              1.0000000000
        95        19  DCM       CL2            10.5340736946      -16.4157149403       14.1732910541  CLST      19              1.0000000000
        96        20  DCM       C              -2.9371141460      -17.6401774362       -3.8417961981  CLST      20              1.0000000000
        97        20  DCM       H1             -2.0727754333      -18.1468463510       -4.3202594462  CLST      20              1.0000000000
        98        20  DCM       H2             -2.6299765848      -16.6773089299       -3.3842122043  CLST      20              1.0000000000
        99        20  DCM       CL1            -4.1835609703      -17.3197909219       -5.0814508346  CLST      20              1.0000000000
       100        20  DCM       CL2            -3.6041397770      -18.7027418117       -2.5692651384  CLST      20              1.0000000000
       101        21  DCM       C              -0.9846829035       15.4908036976       15.7304715602  CLST      21              1.0000000000
       102        21  DCM       H1              0.0401682893       15.5957857320       16.1445248355  CLST      21              1.0000000000
       103        21  DCM       H2             -1.7506733927       15.6085790046       16.5260984604  CLST      21              1.0000000000
       104        21  DCM       CL1            -1.2412933661       16.7467900131       14.4847506270  CLST      21              1.0000000000
       105        21  DCM       CL2            -1.1546504703       13.8692502646       14.9983136359  CLST      21              1.0000000000
       106        22  DCM       C              14.4584497446       12.5500607871       10.8876183935  CLST      22              1.0000000000
       107        22  DCM       H1             14.1010652202       11.8681569032       10.0882066582  CLST      22              1.0000000000
       108        22  DCM       H2             14.9303455829       13.4576018389       10.4561357337  CLST      22              1.0000000000
       109        22  DCM       CL1            13.0685446297       13.0422478077       11.8978950276  CLST      22              1.0000000000
       110        22  DCM       CL2            15.6608224222       11.6886899763       11.8916604363  CLST      22              1.0000000000
       111        23  DCM       C               4.6645884489       -8.4311965029        3.6684226348  CLST      23              1.0000000000
       112        23  DCM       H1              4.2291999934       -8.3301117683        4.6854074547  CLST      23              1.0000000000
       113        23  DCM       H2              3.9469881892       -8.9116826466        2.9706209655  CLST      23              1.0000000000
       114        23  DCM       CL1             5.0781276469       -6.8059728086        3.0483635820  CLST      23              1.0000000000
       115        23  DCM       CL2             6.1401022446       -9.4360256305        3.7670401342  CLST      23              1.0000000000
       116        24  DCM       C               7.8784679535      -18.2330330076       11.9035453668  CLST      24              1.0000000000
       117        24  DCM       H1              7.9588218415      -19.0441172905       11.1491700564  CLST      24              1.0000000000
       118        24  DCM       H2              8.7380907175      -17.5335670589       11.8289195708  CLST      24              1.0000000000
       119        24  DCM       CL1             6.3637387555      -17.3278231325       11.6216342500  CLST      24              1.0000000000
       120        24  DCM       CL2             7.8549481692      -18.9542262729       13.5389551041  CLST      24              1.0000000000
       121        25  DCM       C               6.6611799184      -15.6856154672       14.7291185635  CLST      25              1.0000000000
       122        25  DCM       H1              7.6285331753      -15.8516647849       14.2102210591  CLST      25              1.0000000000
       123        25  DCM       H2              5.9313860220      -16.4830399818       14.4757790898  CLST      25              1.0000000000
       124        25  DCM       CL1             6.9388021737      -15.6979609266       16.4944999871  CLST      25              1.0000000000
       125        25  DCM       CL2             5.9965543234      -14.1049304945       14.2231896964  CLST      25              1.0000000000
       126        26  DCM       C             -16.4710718380      -11.1869512454       10.3995018742  CLST      26              1.0000000000
       127        26  DCM       H1            -15.7410223813      -11.1781972500       11.2367151107  CLST      26              1.0000000000
       128        26  DCM       H2            -17.2786251911      -10.4429278454       10.5658812016  CLST      26              1.0000000000
       129        26  DCM       CL1           -15.6196996615      -10.7880333432        8.8783041232  CLST      26              1.0000000000
       130        26  DCM       CL2           -17.1998488700      -12.8151046583       10.2792927899  CLST      26              1.0000000000
       131        27  DCM       C             -17.9278708199       -8.9877010616      -12.6771981293  CLST      27              1.0000000000
       132        27  DCM       H1            -17.5601583818       -7.9514762857      -12.5200829634  CLST      27              1.0000000000
       133        27  DCM       H2            -17.9310432324       -9.2508224181      -13.7560268787  CLST      27              1.0000000000
       134        27  DCM       CL1           -16.8600351631      -10.1243638148      -11.8027896607  CLST      27              1.0000000000
       135        27  DCM       CL2           -19.5947886477       -9.1169365600      -12.0451280500  CLST      27              1.0000000000
       136        28  DCM       C               2.2264818871       15.3881501611       13.5032098764  CLST      28              1.0000000000
       137        28  DCM       H1              2.8887036460       14.9128007008       12.7489619997  CLST      28              1.0000000000
       138        28  DCM       H2              1.1857768126       15.0108949745       13.4108261101  CLST      28              1.0000000000
       139        28  DCM       CL1             2.8418644995       15.0140510464       15.1388459704  CLST      28              1.0000000000
       140        28  DCM       CL2             2.2275196313       17.1567927899       13.2462144409  CLST      28              1.0000000000
       141        29  DCM       C              16.4521599075       15.3819413584       12.7428415038  CLST      29              1.0000000000
       142        29  DCM       H1             17.0064357067       16.0674395403       13.4187123661  CLST      29              1.0000000000
       143        29  DCM       H2             16.2045255016       14.4297000806       13.2572145199  CLST      29              1.0000000000
       144        29  DCM       CL1            14.9362096726       16.1758263902       12.2256793850  CLST      29              1.0000000000
       145        29  DCM       CL2            17.4653593133       15.0233045463       11.3146225847  CLST      29              1.0000000000
       146        30  DCM       C             -13.2384233039       16.5985685516       -7.2888820408  CLST      30              1.0000000000
       147        30  DCM       H1            -14.1641482663       16.5590109610       -7.9011209756  CLST      30              1.0000000000
       148        30  DCM       H2            -13.4648876564       16.4592846120       -6.2105925708  CLST      30              1.0000000000
       149        30  DCM       CL1           -12.1328209848       15.2987813569       -7.8229105448  CLST      30              1.0000000000
       150        30  DCM       CL2           -12.4582544923       18.1910434194       -7.5176854162  CLST      30              1.0000000000
       151        31  DCM       C              -6.8901963005       14.8027831275        7.6831247459  CLST      31              1.0000000000
       152        31  DCM       H1             -5.9847638772       15.0937547217        7.1096456471  CLST      31              1.0000000000
       153        31  DCM       H2             -6.6392876247       14.0771489040        8.4857952149  CLST      31              1.0000000000
       154        31  DCM       CL1            -7.6041489588       16.2649634084        8.4241432622  CLST      31              1.0000000000
       155        31  DCM       CL2            -8.0688310436       14.0519631409        6.5676957676  CLST      31              1.0000000000
       156        32  DCM       C             -14.0785155496       -9.2857953376        1.5821715509  CLST      32              1.0000000000
       157        32  DCM       H1            -14.3056432773       -8.3444252973        1.0399746039  CLST      32              1.0000000000
       158        32  DCM       H2            -14.9468000973       -9.6145812479        2.1910547613  CLST      32              1.0000000000
       159        32  DCM       CL1           -13.6839340586      -10.5603574335        0.3930909538  CLST      32              1.0000000000
       160        32  DCM       CL2           -12.6807567699       -9.0117232699        2.6618909297  CLST      32              1.0000000000
       161        33  DCM       C              13.9088443143        5.7917265241       11.3367346169  CLST      33              1.0000000000
       162        33  DCM       H1             13.8418809950        5.7072910642       10.2324252394  CLST      33              1.0000000000
       163        33  DCM       H2             14.1610128484        4.8128275454       11.7970640244  CLST      33              1.0000000000
       164        33  DCM       CL1            15.1808583154        6.9772140466       11.7510001289  CLST      33              1.0000000000
       165        33  DCM       CL2            12.3308441965        6.3417848242       11.9707429325  CLST      33              1.0000000000
       166        34  DCM       C             -18.1641353272       18.7894426481       18.2898091979  CLST      34              1.0000000000
       167        34  DCM       H1            -18.5682760048       18.0211339150       18.9824261046  CLST      34              1.0000000000
       168        34  DCM       H2            -17.2389440839       19.2493151857       18.6971126069  CLST      34              1.0000000000
       169        34  DCM       CL1           -17.7871301542       18.0171507387       16.7219145964  CLST      34              1.0000000000
       170        34  DCM       CL2           -19.3938656048       20.0664338937       18.0573360889  CLST      34              1.0000000000
       171        35  DCM       C              -9.7119142239       -5.4163397519       12.2787941315  CLST      35              1.0000000000
       172        35  DCM       H1            -10.1881905270       -4.6031069359       12.8662928138  CLST      35              1.0000000000
       173        35  DCM       H2             -8.8670985091       -5.8721561851       12.8372551303  CLST      35              1.0000000000
       174        35  DCM       CL1           -10.9318068494       -6.6787249542       11.9382527165  CLST      35              1.0000000000
       175        35  DCM       CL2            -9.0946644890       -4.7384722959       10.7437167142  CLST      35              1.0000000000
       176        36  DCM       C             -15.7728916909      -16.1720809895       10.6639588543  CLST      36              1.0000000000
       177        36  DCM       H1            -15.3762891727      -15.1999483598       11.0226010922  CLST      36              1.0000000000
       178        36  DCM       H2            -16.5180606282      -16.0236720532        9.8540677176  CLST      36              1.0000000000
       179        36  DCM       CL1           -16.5558468380      -17.0194451758       12.0289588247  CLST      36              1.0000000000
       180        36  DCM       CL2           -14.4147453291      -17.1503914312       10.0371578076  CLST      36              1.0000000000
       181        37  DCM       C               1.5660295201       11.5498291375       14.0830189688  CLST      37              1.0000000000
       182        37  DCM       H1              2.5711845269       11.0778716598       14.0876173538  CLST      37              1.0000000000
       183        37  DCM       H2              1.5347443434       12.4288233665       14.7596534736  CLST      37              1.0000000000
       184        37  DCM       CL1             1.1781486529       12.0815167664       12.4213320626  CLST      37              1.0000000000
       185        37  DCM       CL2             0.3576956263       10.3564042060       14.6394563456  CLST      37              1.0000000000
       186        38  DCM       C             -15.5772002315        0.4490828086        5.3130919247  CLST      38              1.0000000000
       187        38  DCM       H1            -15.9765966244        0.7190819171        6.3134863174  CLST      38              1.0000000000
       188        38  DCM       H2            -15.7925076274       -0.6129727463        5.0704530397  CLST      38              1.0000000000
       189        38  DCM       CL1           -16.3430712302        1.4925062261        4.0802198723  CLST      38              1.0000000000
       190        38  DCM       CL2           -13.8073439884        0.7013280143        5.3064125195  CLST      38              1.0000000000
       191        39  DCM       C               2.0126042365       11.5648864963       17.9546294714  CLST      39              1.0000000000
       192        39  DCM       H1              2.2375989834       11.3904314311       19.0280832594  CLST      39              1.0000000000
       193        39  DCM       H2              1.4297410113       10.7221127882       17.5259827026  CLST      39              1.0000000000
       194        39  DCM       CL1             1.0597847599       13.0690826135       17.7983469310  CLST      39              1.0000000000
       195        39  DCM       CL2             3.5507798866       11.7261029567       17.0576250123  CLST      39              1.0000000000
       196        40  DCM       C             -17.6128334204       -7.9986919095       -8.9758617606  CLST      40              1.0000000000
       197        40  DCM       H1            -16.6303298126       -8.1834835031       -9.4593710363  CLST      40              1.0000000000
       198        40  DCM       H2            -18.3182453316       -8.8340584624       -9.1719297696  CLST      40              1.0000000000
       199        40  DCM       CL1           -17.3702778778       -7.8425278415       -7.2118327439  CLST      40              1.0000000000
       200        40  DCM       CL2           -18.3053422055       -6.4868719277       -9.6321064926  CLST      40              1.0000000000
       201        41  DCM       C               4.2054528050      -14.5325956490       10.0351228451  CLST      41              1.0000000000
       202        41  DCM       H1              4.5889897042      -15.5636640502       10.1802796194  CLST      41              1.0000000000
       203        41  DCM       H2              3.3143794672      -14.3466831903       10.6711483138  CLST      41              1.0000000000
       204        41  DCM       CL1             5.4858942105      -13.3645371432       10.4712617784  CLST      41              1.0000000000
       205        41  DCM       CL2             3.7558775481      -14.3228235323        8.3183754537  CLST      41              1.0000000000
       206        42  DCM       C              12.6680006409      -14.1104103638       -9.4169268292  CLST      42              1.0000000000
       207        42  DCM       H1             12.9007571243      -13.3241625012      -10.1651220805  CLST      42              1.0000000000
       208        42  DCM       H2             13.5378860372      -14.7841379456       -9.2626846096  CLST      42              1.0000000000
       209        42  DCM       CL1            12.2516709207      -13.3306640708       -7.8639697636  CLST      42              1.0000000000
       210        42  DCM       CL2            11.2769688350      -15.0686031624      -10.0014406194  CLST      42              1.0000000000
       211        43  DCM       C               4.8217395764        6.0618404321      -16.2063030147  CLST      43              1.0000000000
       212        43  DCM       H1              5.1363653290        5.8511597388      -17.2504020938  CLST      43              1.0000000000
       213        43  DCM       H2              5.1433316482        7.0759933324      -15.8897219581  CLST      43              1.0000000000
       214        43  DCM       CL1             3.0403328181        5.9601370350      -16.1009103242  CLST      43              1.0000000000
       215        43  DCM       CL2             5.5638130413        4.8517272252      -15.1201176028  CLST      43              1.0000000000
       216        44  DCM       C             -11.1070409145      -13.8620323761        6.3719410380  CLST      44              1.0000000000
       217        44  DCM       H1            -10.2013268714      -13.7651944746        5.7365055572  CLST      44              1.0000000000
       218        44  DCM       H2            -10.9098779817      -14.5029480058        7.2571355918  CLST      44              1.0000000000
       219        44  DCM       CL1           -11.6007357652      -12.2368762335        6.9290636029  CLST      44              1.0000000000
       220        44  DCM       CL2           -12.4171796283      -14.5972284268        5.4039958096  CLST      44              1.0000000000
       221        45  DCM       C              13.0624910772        9.7215898283       13.4589429302  CLST      45              1.0000000000
       222        45  DCM       H1             13.4042152710       10.7175660413       13.8082560345  CLST      45              1.0000000000
       223        45  DCM       H2             13.6662896741        9.3753789869       12.5942625747  CLST      45              1.0000000000
       224        45  DCM       CL1            13.2360478539        8.5504424658       14.7975021800  CLST      45              1.0000000000
       225        45  DCM       CL2            11.3481577896        9.8356384761       12.9646012314  CLST      45              1.0000000000
       226        46  DCM       C             -13.9347920831       -2.0782907437        2.7274638858  CLST      46              1.0000000000
       227        46  DCM       H1            -13.4202748100       -2.7053376044        1.9691651822  CLST      46              1.0000000000
       228        46  DCM       H2            -13.3594201535       -1.1508493623        2.9318699013  CLST      46              1.0000000000
       229        46  DCM       CL1           -15.5545757837       -1.6384334862        2.1129766468  CLST      46              1.0000000000
       230        46  DCM       CL2           -14.0957170563       -3.0095688735        4.2451590392  CLST      46              1.0000000000
       231        47  DCM       C              -6.6985532589        0.9741484894      -14.3060950626  CLST      47              1.0000000000
       232        47  DCM       H1             -7.6647050373        0.5510000027      -13.9587480467  CLST      47              1.0000000000
       233        47  DCM       H2             -5.8416327480        0.4482091233      -13.8371581443  CLST      47              1.0000000000
       234        47  DCM       CL1            -6.5851482482        0.7953128442      -16.0809608662  CLST      47              1.0000000000
       235        47  DCM       CL2            -6.6235470934        2.7034507973      -13.8605984372  CLST      47              1.0000000000
       236        48  DCM       C             -13.3005563995        3.0415911305        2.4840478622  CLST      48              1.0000000000
       237        48  DCM       H1            -14.3012961339        3.3972768095        2.8085956380  CLST      48              1.0000000000
       238        48  DCM       H2            -12.6483175584        2.8326949183        3.3581747545  CLST      48              1.0000000000
       239        48  DCM       CL1           -13.4974412012        1.5397892048        1.5339420854  CLST      48              1.0000000000
       240        48  DCM       CL2           -12.5344569568        4.3026048948        1.4747585275  CLST      48              1.0000000000
       241        49  DCM       C              -4.8471975245        3.5802746035       -7.5488426471  CLST      49              1.0000000000
       242        49  DCM       H1             -4.2333912284        3.1240076693       -8.3546363387  CLST      49              1.0000000000
       243        49  DCM       H2             -4.8443240227        4.6881075901       -7.6223225385  CLST      49              1.0000000000
       244        49  DCM       CL1            -6.5296972722        2.9930940535       -7.6933240204  CLST      49              1.0000000000
       245        49  DCM       CL2            -4.1729950438        3.1024582647       -5.9634429031  CLST      49              1.0000000000
       246        50  DCM       C               3.1626850925      -10.7862006528        8.4100404395  CLST      50              1.0000000000
       247        50  DCM       H1              2.4392737044      -11.5524031008        8.0594841085  CLST      50              1.0000000000
       248        50  DCM       H2              3.7480053025      -11.1584849485        9.2770768857  CLST      50              1.0000000000
       249        50  DCM       CL1             4.2859158511      -10.3950632913        7.0757534579  CLST      50              1.0000000000
       250        50  DCM       CL2             2.2643791088       -9.3208545315        8.9008052702  CLST      50              1.0000000000
       251        51  DCM       C              -3.6030403447       -1.4606225003      -15.2689501614  CLST      51              1.0000000000
       252        51  DCM       H1             -2.7519479322       -2.1277731094      -15.5214921923  CLST      51              1.0000000000
       253        51  DCM       H2             -4.3002192889       -1.3584649318      -16.1275673094  CLST      51              1.0000000000
       254        51  DCM       CL1            -4.4898460976       -2.1500789925      -13.8780218961  CLST      51              1.0000000000
       255        51  DCM       CL2            -2.9671173517        0.1548846270      -14.8431094236  CLST      51              1.0000000000
       256        52  DCM       C             -14.6322993897      -14.7818923432       14.3411343799  CLST      52              1.0000000000
       257        52  DCM       H1            -15.3380791318      -15.6163754539       14.5385617983  CLST      52              1.0000000000
       258        52  DCM       H2            -14.2164336737      -14.3763884110       15.2877184626  CLST      52              1.0000000000
       259        52  DCM       CL1           -13.2883613215      -15.3875174876       13.3307427331  CLST      52              1.0000000000
       260        52  DCM       CL2           -15.4995944836      -13.4769141626       13.4800538385  CLST      52              1.0000000000
       261        53  DCM       C              -1.5207713705       16.8406113885      -14.4396690867  CLST      53              1.0000000000
       262        53  DCM       H1             -1.8648517074       16.2368601030      -13.5736758768  CLST      53              1.0000000000
       263        53  DCM       H2             -1.8618411777       17.8938929763      -14.3519952295  CLST      53              1.0000000000
       264        53  DCM       CL1             0.2660595980       16.8117985819      -14.4981533964  CLST      53              1.0000000000
       265        53  DCM       CL2            -2.1877270608       16.1338031919      -15.9398404880  CLST      53              1.0000000000
       266        54  DCM       C               8.1521436910        7.3003475231        3.9093057148  CLST      54              1.0000000000
       267        54  DCM       H1              8.0328303794        6.5653003769        3.0852068223  CLST      54              1.0000000000
       268        54  DCM       H2              9.0421207187        7.9425325030        3.7455829822  CLST      54              1.0000000000
       269        54  DCM       CL1             6.6980592105        8.3371162715        3.9829820725  CLST      54              1.0000000000
       270        54  DCM       CL2             8.3525282182        6.4249417671        5.4542567395  CLST      54              1.0000000000
       271        55  DCM       C              -3.5557471487       -2.4748639629      -10.0683848653  CLST      55              1.0000000000
       272        55  DCM       H1             -3.9309367202       -2.7629585458      -11.0722669716  CLST      55              1.0000000000
       273        55  DCM       H2             -3.8677005560       -1.4424042330       -9.8083514100  CLST      55              1.0000000000
       274        55  DCM       CL1            -4.2207129387       -3.6033204087       -8.8527812529  CLST      55              1.0000000000
       275        55  DCM       CL2            -1.7707693809       -2.5564383632      -10.0651341030  CLST      55              1.0000000000
       276        56  DCM       C               0.9930814839       14.2136392417      -12.1405676357  CLST      56              1.0000000000
       277        56  DCM       H1              1.2260607259       13.8951691917      -13.1788299040  CLST      56              1.0000000000
       278        56  DCM       H2              1.2610404947       15.2796960607      -11.9813151745  CLST      56              1.0000000000
       279        56  DCM       CL1            -0.7576190845       14.0043474561      -11.8480490331  CLST      56              1.0000000000
       280        56  DCM       CL2             1.9231274428       13.2024954721      -10.9972915081  CLST      56              1.0000000000
       281        57  DCM       C             -16.1390657073      -14.5475544713        6.5539776729  CLST      57              1.0000000000
       282        57  DCM       H1            -15.6235055468      -14.6143078786        5.5725431546  CLST      57              1.0000000000
       283        57  DCM       H2            -16.6674119326      -15.4941833948        6.7938214453  CLST      57              1.0000000000
       284        57  DCM       CL1           -14.9265214393      -14.2210192579        7.8242735788  CLST      57              1.0000000000
       285        57  DCM       CL2           -17.3283319682      -13.2143554043        6.4980411601  CLST      57              1.0000000000
       286        58  DCM       C              10.3770758088        5.6563468588        8.6227325456  CLST      58              1.0000000000
       287        58  DCM       H1              9.7628980539        6.5179991056        8.2880249268  CLST      58              1.0000000000
       288        58  DCM       H2             10.4973323547        5.6549104097        9.7263526844  CLST      58              1.0000000000
       289        58  DCM       CL1             9.5699464461        4.1407203605        8.1253537899  CLST      58              1.0000000000
       290        58  DCM       CL2            11.9904936740        5.7599591570        7.8601599650  CLST      58              1.0000000000
       291        59  DCM       C               9.3077299819       11.6022626579       -4.0335566570  CLST      59              1.0000000000
       292        59  DCM       H1              9.5041599975       12.6119586581       -4.4525286203  CLST      59              1.0000000000
       293        59  DCM       H2              8.2193283217       11.3822147706       -4.0116715077  CLST      59              1.0000000000
       294        59  DCM       CL1            10.1240410522       10.3832203866       -5.0541308039  CLST      59              1.0000000000
       295        59  DCM       CL2             9.9516224954       11.5294942547       -2.3670968392  CLST      59              1.0000000000
       296        60  DCM       C              11.9761903661      -16.9886375877       -6.7294821424  CLST      60              1.0000000000
       297        60  DCM       H1             11.3991346903      -17.8566564196       -6.3463938344  CLST      60              1.0000000000
       298        60  DCM       H2             11.3054622864      -16.2406750270       -7.2025939925  CLST      60              1.0000000000
       299        60  DCM       CL1            12.8363170402      -16.2155528771       -5.3667320972  CLST      60              1.0000000000
       300        60  DCM       CL2            13.1561444412      -17.5648854682       -7.9426239473  CLST      60              1.0000000000
       301        61  DCM       C             -15.9888855014       -5.5501193682        2.2178066725  CLST      61              1.0000000000
       302        61  DCM       H1            -16.8517503946       -6.0582702125        1.7388198182  CLST      61              1.0000000000
       303        61  DCM       H2            -16.2782870566       -4.5475984697        2.5997060906  CLST      61              1.0000000000
       304        61  DCM       CL1           -15.4115325011       -6.5456114351        3.5856314725  CLST      61              1.0000000000
       305        61  DCM       CL2           -14.6818685688       -5.3592875770        1.0127684984  CLST      61              1.0000000000
       306        62  DCM       C              11.4477543933      -15.3253168864      -13.7190224831  CLST      62              1.0000000000
       307        62  DCM       H1             11.9882082866      -15.5043777635      -12.7670738825  CLST      62              1.0000000000
       308        62  DCM       H2             10.4637506986      -15.8385429307      -13.7184078206  CLST      62              1.0000000000
       309        62  DCM       CL1            11.1965625039      -13.5662360714      -13.9154661283  CLST      62              1.0000000000
       310        62  DCM       CL2            12.4361507931      -15.9537166471      -15.0688111095  CLST      62              1.0000000000
       311        63  DCM       C              -1.1479749081      -14.7311874912       -7.2086876139  CLST      63              1.0000000000
       312        63  DCM       H1             -0.9988720649      -13.7630768967       -6.6852252275  CLST      63              1.0000000000
       313        63  DCM       H2             -0.5470074929      -14.7794225879       -8.1415337579  CLST      63              1.0000000000
       314        63  DCM       CL1            -0.6439621188      -16.0599382600       -6.1242756161  CLST      63              1.0000000000
       315        63  DCM       CL2            -2.8781804383      -14.9086359673       -7.6225557376  CLST      63              1.0000000000
       316        64  DCM       C             -14.2195747756      -12.8461626046      -12.8844004777  CLST      64              1.0000000000
       317        64  DCM       H1            -14.0275145382      -13.1813649165      -11.8433041567  CLST      64              1.0000000000
       318        64  DCM       H2            -15.0903769388      -12.1594133348      -12.9291531571  CLST      64              1.0000000000
       319        64  DCM       CL1           -12.7750302905      -11.9902966330      -13.4978338442  CLST      64              1.0000000000
       320        64  DCM       CL2           -14.5569011089      -14.2745357589      -13.9050285836  CLST      64              1.0000000000
       321        65  DCM       C               3.2716076464        6.4772526848      -12.5287540226  CLST      65              1.0000000000
       322        65  DCM       H1              3.5541773875        5.4805323904      -12.9290729878  CLST      65              1.0000000000
       323        65  DCM       H2              2.3914442501        6.8869131877      -13.0680639642  CLST      65              1.0000000000
       324        65  DCM       CL1             2.8702692389        6.3153398549      -10.7943887152  CLST      65              1.0000000000
       325        65  DCM       CL2             4.6500772708        7.5975243727      -12.7298726263  CLST      65              1.0000000000
       326        66  DCM       C               6.4857460124        4.8036590162      -10.7621589152  CLST      66              1.0000000000
       327        66  DCM       H1              7.0137182053        4.3308382097       -9.9074830244  CLST      66              1.0000000000
       328        66  DCM       H2              5.8376794294        5.6382788097      -10.4205751964  CLST      66              1.0000000000
       329        66  DCM       CL1             7.6964561830        5.4421918565      -11.9112161567  CLST      66              1.0000000000
       330        66  DCM       CL2             5.4728857768        3.5729634153      -11.5716451837  CLST      66              1.0000000000
       331        67  DCM       C             -15.6817992639      -11.1541389524      -15.9863791992  CLST      67              1.0000000000
       332        67  DCM       H1            -15.9061306412      -10.9175965843      -17.0480218512  CLST      67              1.0000000000
       333        67  DCM       H2            -14.8612720688      -11.8988061558      -15.9082992208  CLST      67              1.0000000000
       334        67  DCM       CL1           -15.1878238514       -9.6543271086      -15.1479697275  CLST      67              1.0000000000
       335        67  DCM       CL2           -17.1506042216      -11.8226200836      -15.2166243990  CLST      67              1.0000000000
       336        68  DCM       C              -0.4650616442       15.8518233761       10.7407041955  CLST      68              1.0000000000
       337        68  DCM       H1             -1.0166335777       16.3317264893        9.9047806164  CLST      68              1.0000000000
       338        68  DCM       H2             -0.2497229302       16.5825378970       11.5484306335  CLST      68              1.0000000000
       339        68  DCM       CL1            -1.4609984725       14.5260162038       11.4071009945  CLST      68              1.0000000000
       340        68  DCM       CL2             1.0775942403       15.1962766655       10.1186191856  CLST      68              1.0000000000
       341        69  DCM       C              16.6608861378       -6.3510695341       -9.5328232250  CLST      69              1.0000000000
       342        69  DCM       H1             17.1315804329       -6.6689694577      -10.4865673420  CLST      69              1.0000000000
       343        69  DCM       H2             17.4126981921       -6.2925168224       -8.7177452644  CLST      69              1.0000000000
       344        69  DCM       CL1            15.9181441779       -4.7412955480       -9.7595258332  CLST      69              1.0000000000
       345        69  DCM       CL2            15.4047229279       -7.5395978053       -9.0813677024  CLST      69              1.0000000000
       346        70  DCM       C              14.2133049611       -3.2438605638      -12.8690009368  CLST      70              1.0000000000
       347        70  DCM       H1             13.6200838158       -2.3581159450      -12.5565727775  CLST      70              1.0000000000
       348        70  DCM       H2             15.1808519500       -3.2882917219      -12.3267108229  CLST      70              1.0000000000
       349        70  DCM       CL1            13.2778436892       -4.7245093773      -12.5106376975  CLST      70              1.0000000000
       350        70  DCM       CL2            14.5352221497       -3.1398101986      -14.6247243105  CLST      70              1.0000000000
       351        71  DCM       C             -11.5562729559      -13.2917219536        1.6562059984  CLST      71              1.0000000000
       352        71  DCM       H1            -11.0562233152      -13.0360833315        0.6981452540  CLST      71              1.0000000000
       353        71  DCM       H2            -12.6456644512      -13.0838640937        1.6067932600  CLST      71              1.0000000000
       354        71  DCM       CL1           -11.3175013065      -15.0301106052        1.9947034195  CLST      71              1.0000000000
       355        71  DCM       CL2           -10.8370398430      -12.3115857699        2.9667476053  CLST      71              1.0000000000
       356        72  DCM       C              -3.1911873034      -15.7996602438        0.0126393089  CLST      72              1.0000000000
       357        72  DCM       H1             -3.0883987069      -15.8899577579        1.1148950633  CLST      72              1.0000000000
       358        72  DCM       H2             -3.8670417400      -16.5838921134       -0.3887200747  CLST      72              1.0000000000
       359        72  DCM       CL1            -3.8682159681      -14.1915999574       -0.3755976663  CLST      72              1.0000000000
       360        72  DCM       CL2            -1.5785668532      -15.9750611240       -0.7383207450  CLST      72              1.0000000000
       361        73  DCM       C              14.1627278074        8.7054358603        8.4352797811  CLST      73              1.0000000000
       362        73  DCM       H1             13.7954627552        9.0465209091        7.4439380865  CLST      73              1.0000000000
       363        73  DCM       H2             14.3535296657        7.6118234072        8.4373506950  CLST      73              1.0000000000
       364        73  DCM       CL1            15.6847430969        9.5584834459        8.8207615858  CLST      73              1.0000000000
       365        73  DCM       CL2            12.9301297391        9.0817240547        9.6722185524  CLST      73              1.0000000000
       366        74  DCM       C             -14.4214995482      -11.3485166532        4.9983543589  CLST      74              1.0000000000
       367        74  DCM       H1            -14.4712646121      -11.9469700602        5.9319871075  CLST      74              1.0000000000
       368        74  DCM       H2            -13.4052695263      -10.9254850261        4.8516741961  CLST      74              1.0000000000
       369        74  DCM       CL1           -14.8193241923      -12.3998111878        3.6086730558  CLST      74              1.0000000000
       370        74  DCM       CL2           -15.6021333798      -10.0114250410        5.1062657403  CLST      74              1.0000000000
       371        75  DCM       C              12.6031155149        2.1428061754        9.3530685644  CLST      75              1.0000000000
       372        75  DCM       H1             12.7868573564        1.0646113120        9.5464432718  CLST      75              1.0000000000
       373        75  DCM       H2             11.9329733626        2.2842065312        8.4796926687  CLST      75              1.0000000000
       374        75  DCM       CL1            11.8386046632        2.8680219181       10.7972535248  CLST      75              1.0000000000
       375        75  DCM       CL2            14.1647434619        2.9492460901        9.0242715177  CLST      75              1.0000000000
       376        76  DCM       C             -13.0407928054      -12.8184172295       10.4604466834  CLST      76              1.0000000000
       377        76  DCM       H1            -13.0305645658      -12.1419173214        9.5802896022  CLST      76              1.0000000000
       378        76  DCM       H2            -14.0589457512      -13.2209601491       10.6421661828  CLST      76              1.0000000000
       379        76  DCM       CL1           -11.9250303260      -14.1812166294       10.1569766138  CLST      76              1.0000000000
       380        76  DCM       CL2           -12.5133524305      -11.9036399798       11.9019723000  CLST      76              1.0000000000
       381        77  DCM       C               7.9061785921        8.0950774810      -14.2751020031  CLST      77              1.0000000000
       382        77  DCM       H1              7.5573574700        8.4060062883      -13.2677333420  CLST      77              1.0000000000
       383        77  DCM       H2              7.6098801237        7.0472235488      -14.4929282142  CLST      77              1.0000000000
       384        77  DCM       CL1             7.1792387149        9.1721730394      -15.5022622426  CLST      77              1.0000000000
       385        77  DCM       CL2             9.6880195269        8.2194782861      -14.3352709659  CLST      77              1.0000000000
       386        78  DCM       C               2.3675801606       -6.0698951260       -5.1167830446  CLST      78              1.0000000000
       387        78  DCM       H1              1.4278911847       -5.4933374726       -4.9883159855  CLST      78              1.0000000000
       388        78  DCM       H2              2.1549680542       -7.1110640711       -5.4396450073  CLST      78              1.0000000000
       389        78  DCM       CL1             3.3699562303       -5.2690544440       -6.3606542679  CLST      78              1.0000000000
       390        78  DCM       CL2             3.2420442449       -6.1085107938       -3.5583666318  CLST      78              1.0000000000
       391        79  DCM       C              -1.4305615744       -5.2364490296       -7.3208830705  CLST      79              1.0000000000
       392        79  DCM       H1             -2.4090406706       -5.2894778463       -6.7981579285  CLST      79              1.0000000000
       393        79  DCM       H2             -1.5681560984       -5.1007014190       -8.4143934808  CLST      79              1.0000000000
       394        79  DCM       CL1            -0.5027183504       -3.8504654534       -6.6764341018  CLST      79              1.0000000000
       395        79  DCM       CL2            -0.5361012977       -6.7576353031       -7.0369460081  CLST      79              1.0000000000
       396        80  DCM       C              -4.1983846891      -13.3579853043       -4.6568309008  CLST      80              1.0000000000
       397        80  DCM       H1             -3.9816233597      -12.7005512778       -5.5251348403  CLST      80              1.0000000000
       398        80  DCM       H2             -4.7179337498      -14.2849156406       -4.9799655302  CLST      80              1.0000000000
       399        80  DCM       CL1            -5.2399720903      -12.4741133338       -3.5038964790  CLST      80              1.0000000000
       400        80  DCM       CL2            -2.6583946125      -13.7998046956       -3.8650000272  CLST      80              1.0000000000
       401        81  DCM       C              16.3317355340      -15.7181631241       -6.9197975117  CLST      81              1.0000000000
       402        81  DCM       H1             17.3518226142      -15.7511558026       -6.4823169281  CLST      81              1.0000000000
       403        81  DCM       H2             15.6760654716      -16.4902778927       -6.4646612541  CLST      81              1.0000000000
       404        81  DCM       CL1            15.6238199267      -14.1045137933       -6.6215753041  CLST      81              1.0000000000
       405        81  DCM       CL2            16.4438164640      -16.0148313109       -8.6784566274  CLST      81              1.0000000000
       406        82  DCM       C             -10.4306415049       13.8264507571        9.3705669656  CLST      82              1.0000000000
       407        82  DCM       H1            -10.2683117065       14.9128678136        9.2070267731  CLST      82              1.0000000000
       408        82  DCM       H2            -10.5290155279       13.2878962050        8.4043176180  CLST      82              1.0000000000
       409        82  DCM       CL1            -9.0360824779       13.1585445502       10.2685630468  CLST      82              1.0000000000
       410        82  DCM       CL2           -11.9287079719       13.5983560494       10.3190103178  CLST      82              1.0000000000
       411        83  DCM       C              15.4088234960      -11.3793923410       -9.2458487816  CLST      83              1.0000000000
       412        83  DCM       H1             14.7410058942      -11.8665656275       -8.5052265628  CLST      83              1.0000000000
       413        83  DCM       H2             15.9494060852      -10.5243189446       -8.7884108303  CLST      83              1.0000000000
       414        83  DCM       CL1            16.6000300780      -12.5755622988       -9.8327189977  CLST      83              1.0000000000
       415        83  DCM       CL2            14.4262071428      -10.7839883304      -10.6151474031  CLST      83              1.0000000000
       416        84  DCM       C              12.6389827837        7.3524532790       -1.7451187889  CLST      84              1.0000000000
       417        84  DCM       H1             11.8808707787        7.0036096425       -1.0124913882  CLST      84              1.0000000000
       418        84  DCM       H2             13.4239954573        6.5831586375       -1.9035438496  CLST      84              1.0000000000
       419        84  DCM       CL1            11.8302320996        7.6854706112       -3.3028140657  CLST      84              1.0000000000
       420        84  DCM       CL2            13.4038438769        8.8462850261       -1.1297534018  CLST      84              1.0000000000
       421        85  DCM       C              10.4447149042        9.6952416137        0.9530720524  CLST      85              1.0000000000
       422        85  DCM       H1             10.8972791603       10.5374468101        1.5183462589  CLST      85              1.0000000000
       423        85  DCM       H2             10.7313205824        9.7351850437       -0.1185476473  CLST      85              1.0000000000
       424        85  DCM       CL1            11.0172504916        8.1516375071        1.6494186954  CLST      85              1.0000000000
       425        85  DCM       CL2             8.6648578332        9.7966657434        1.0828094639  CLST      85              1.0000000000
       426        86  DCM       C             -19.0239295867        2.2187459179      -13.0054561911  CLST      86              1.0000000000
       427        86  DCM       H1            -20.0644148961        2.5917809586      -12.8977835691  CLST      86              1.0000000000
       428        86  DCM       H2            -18.4343821906        2.4037953124      -12.0826305523  CLST      86              1.0000000000
       429        86  DCM       CL1           -19.0675004520        0.4598685696      -13.3240304139  CLST      86              1.0000000000
       430        86  DCM       CL2           -18.2424132469        3.0641748656      -14.3734805327  CLST      86              1.0000000000
       431        87  DCM       C              15.4249030374      -15.6091556877      -12.3521235958  CLST      87              1.0000000000
       432        87  DCM       H1             16.3362900524      -15.4979465822      -11.7271123017  CLST      87              1.0000000000
       433        87  DCM       H2             15.6753807244      -15.9975130859      -13.3619651609  CLST      87              1.0000000000
       434        87  DCM       CL1            14.3064683237      -16.7519550201      -11.5524050357  CLST      87              1.0000000000
       435        87  DCM       CL2            14.6429748287      -14.0115837510      -12.5243966265  CLST      87              1.0000000000
       436        88  DCM       C              -7.7607536965      -15.2114088717        1.6190145655  CLST      88              1.0000000000
       437        88  DCM       H1             -8.3252930438      -15.8787447430        0.9348475281  CLST      88              1.0000000000
       438        88  DCM       H2             -8.3226256227      -15.0384806787        2.5610620651  CLST      88              1.0000000000
       439        88  DCM       CL1            -6.1913883688      -15.9728665513        2.0085870626  CLST      88              1.0000000000
       440        88  DCM       CL2            -7.4918809198      -13.6417061408        0.8074240269  CLST      88              1.0000000000
       441        89  DCM       C               9.7103040030        5.3602059156      -16.7304140616  CLST      89              1.0000000000
       442        89  DCM       H1             10.4615591705        6.1430477209      -16.4935919456  CLST      89              1.0000000000
       443        89  DCM       H2             10.1194552821        4.6156034348      -17.4452967946  CLST      89              1.0000000000
       444        89  DCM       CL1             9.2496667382        4.5222192742      -15.2198974167  CLST      89              1.0000000000
       445        89  DCM       CL2             8.2727802839        6.1354542443      -17.4577330398  CLST      89              1.0000000000
       446        90  DCM       C               7.7522134438      -14.3277539973      -14.7382791157  CLST      90              1.0000000000
       447        90  DCM       H1              7.9585714924      -13.2374691648      -14.7843491720  CLST      90              1.0000000000
       448        90  DCM       H2              8.5407691813      -14.9051145254      -15.2661446990  CLST      90              1.0000000000
       449        90  DCM       CL1             7.7043538262      -14.8380558226      -13.0248559039  CLST      90              1.0000000000
       450        90  DCM       CL2             6.1754105071      -14.6563324999      -15.5138356162  CLST      90              1.0000000000
       451        91  DCM       C               7.5161440989      -16.0091600182        8.2725964888  CLST      91              1.0000000000
       452        91  DCM       H1              7.6975238966      -15.4348887804        7.3394876915  CLST      91              1.0000000000
       453        91  DCM       H2              7.2076312242      -15.3379474294        9.1009670919  CLST      91              1.0000000000
       454        91  DCM       CL1             6.2185505503      -17.2030134004        7.9784228480  CLST      91              1.0000000000
       455        91  DCM       CL2             9.0210543482      -16.8526595197        8.7412756993  CLST      91              1.0000000000
       456        92  DCM       C               9.3982998330       10.2119191229        6.1246386423  CLST      92              1.0000000000
       457        92  DCM       H1              8.4172060104        9.6967041468        6.0512670839  CLST      92              1.0000000000
       458        92  DCM       H2              9.3258144769       11.1163290116        6.7642884421  CLST      92              1.0000000000
       459        92  DCM       CL1            10.5946705145        9.0881616799        6.8314427386  CLST      92              1.0000000000
       460        92  DCM       CL2             9.9259039982       10.7053360472        4.4906015249  CLST      92              1.0000000000
