* pre_mlpot:mc_density_skipped_hold_box
*
        1030  EXT
         1         1  DCM   C             5.8229701435       -6.0204280861       12.9667174164  CLST           1          1.0000000000
         2         1  DCM   H1            5.6797957990       -6.9638499293       12.3998250077  CLST           1          1.0000000000
         3         1  DCM   H2            6.0200324637       -6.2246587754       14.0394067048  CLST           1          1.0000000000
         4         1  DCM   CL1           7.2164185626       -5.1326567253       12.2870573288  CLST           1          1.0000000000
         5         1  DCM   CL2           4.3398543155       -5.0375794618       12.8176791507  CLST           1          1.0000000000
         6         2  DCM   C             1.1523184290       -0.5633102545        2.1557261760  CLST           2          1.0000000000
         7         2  DCM   H1            0.8932691064       -0.1725720459        3.1613984258  CLST           2          1.0000000000
         8         2  DCM   H2            0.6942307824        0.0595096803        1.3578785665  CLST           2          1.0000000000
         9         2  DCM   CL1           2.9290593643       -0.5423357206        1.9708293153  CLST           2          1.0000000000
        10         2  DCM   CL2           0.5527251915       -2.2400857642        2.0084089620  CLST           2          1.0000000000
        11         3  DCM   C             6.6726657775       -8.4466785570       -9.1649507127  CLST           3          1.0000000000
        12         3  DCM   H1            5.9124325541       -9.1193159887       -9.6165297374  CLST           3          1.0000000000
        13         3  DCM   H2            7.1187934740       -8.9031672488       -8.2556789265  CLST           3          1.0000000000
        14         3  DCM   CL1           7.9640704805       -8.1397751151      -10.3605057158  CLST           3          1.0000000000
        15         3  DCM   CL2           5.8948165273       -6.9027388216       -8.7190368074  CLST           3          1.0000000000
        16         4  DCM   C            -4.0285429344      -11.3765844653       -4.2791061161  CLST           4          1.0000000000
        17         4  DCM   H1           -4.9328232169      -10.7620804288       -4.4682644479  CLST           4          1.0000000000
        18         4  DCM   H2           -3.1092362664      -10.8318231174       -4.5807843701  CLST           4          1.0000000000
        19         4  DCM   CL1          -3.9391695564      -11.7525622633       -2.5335980197  CLST           4          1.0000000000
        20         4  DCM   CL2          -4.1442945834      -12.8901240296       -5.2237112299  CLST           4          1.0000000000
        21         5  DCM   C            -8.8207148579        8.0396369183        6.1596491530  CLST           5          1.0000000000
        22         5  DCM   H1           -9.6654810222        8.7580050491        6.2206941832  CLST           5          1.0000000000
        23         5  DCM   H2           -8.7466292759        7.5963175799        5.1446112254  CLST           5          1.0000000000
        24         5  DCM   CL1          -7.2996504059        8.8997657909        6.5231861026  CLST           5          1.0000000000
        25         5  DCM   CL2          -9.0779843512        6.7371620236        7.3552593296  CLST           5          1.0000000000
        26         6  DCM   C             0.0729626860       10.3416088088       -9.0758463671  CLST           6          1.0000000000
        27         6  DCM   H1           -0.3294583791        9.7899156050       -8.2003446658  CLST           6          1.0000000000
        28         6  DCM   H2            0.1106186785        9.6894684826       -9.9738962401  CLST           6          1.0000000000
        29         6  DCM   CL1          -0.9823008130       11.7441398405       -9.4139742080  CLST           6          1.0000000000
        30         6  DCM   CL2           1.7251181425       10.9080739666       -8.7021704562  CLST           6          1.0000000000
        31         7  DCM   C             2.1640378326       -7.4679698277        2.1880625345  CLST           7          1.0000000000
        32         7  DCM   H1            1.1718998004       -7.6207172398        2.6622685542  CLST           7          1.0000000000
        33         7  DCM   H2            2.0775453125       -7.4185556780        1.0835195440  CLST           7          1.0000000000
        34         7  DCM   CL1           2.8714670944       -5.9369133425        2.7773979847  CLST           7          1.0000000000
        35         7  DCM   CL2           3.2291736071       -8.8345376176        2.6172701707  CLST           7          1.0000000000
        36         8  DCM   C            -0.3375529055        5.5705935098      -11.0405474645  CLST           8          1.0000000000
        37         8  DCM   H1            0.4922862300        4.9209473056      -11.3880219218  CLST           8          1.0000000000
        38         8  DCM   H2            0.0467118190        6.5349157285      -10.6474043850  CLST           8          1.0000000000
        39         8  DCM   CL1          -1.4251225249        5.8949327685      -12.4168029123  CLST           8          1.0000000000
        40         8  DCM   CL2          -1.2333380298        4.7243177959       -9.7490285262  CLST           8          1.0000000000
        41         9  DCM   C            -3.1449228107        5.2786579373        1.5384269310  CLST           9          1.0000000000
        42         9  DCM   H1           -2.7053297356        5.9041750811        0.7340857783  CLST           9          1.0000000000
        43         9  DCM   H2           -3.4226933718        4.2750942692        1.1541877831  CLST           9          1.0000000000
        44         9  DCM   CL1          -1.9489831970        5.0901535929        2.8514383912  CLST           9          1.0000000000
        45         9  DCM   CL2          -4.6064466195        6.0852730585        2.1720824441  CLST           9          1.0000000000
        46        10  DCM   C            -1.9310505751       -4.4736560636        3.4164157021  CLST          10          1.0000000000
        47        10  DCM   H1           -2.5857675831       -4.9953930413        4.1452148026  CLST          10          1.0000000000
        48        10  DCM   H2           -1.1636255370       -3.8612463768        3.9324219543  CLST          10          1.0000000000
        49        10  DCM   CL1          -1.1024016971       -5.6822086911        2.3959441986  CLST          10          1.0000000000
        50        10  DCM   CL2          -2.9393460173       -3.4058012844        2.4034398531  CLST          10          1.0000000000
        51        11  DCM   C           -12.0823429329       -7.3798790544       -4.5614113190  CLST          11          1.0000000000
        52        11  DCM   H1          -13.0472963114       -6.8338357429       -4.5064901101  CLST          11          1.0000000000
        53        11  DCM   H2          -11.5616270685       -7.3646242120       -3.5809941224  CLST          11          1.0000000000
        54        11  DCM   CL1         -12.3936037583       -9.0775036731       -5.0281289072  CLST          11          1.0000000000
        55        11  DCM   CL2         -11.0438703248       -6.5982636315       -5.7871346565  CLST          11          1.0000000000
        56        12  DCM   C            10.8015753423      -13.1367037468        9.9571687938  CLST          12          1.0000000000
        57        12  DCM   H1           11.5652586459      -13.7439520688       10.4878890195  CLST          12          1.0000000000
        58        12  DCM   H2           10.5485855064      -12.2194861611       10.5306153437  CLST          12          1.0000000000
        59        12  DCM   CL1          11.4426882441      -12.6647525668        8.3559365411  CLST          12          1.0000000000
        60        12  DCM   CL2           9.3219830758      -14.1172959849        9.7520184574  CLST          12          1.0000000000
        61        13  DCM   C             8.9752794951        9.3182233278      -10.6179142980  CLST          13          1.0000000000
        62        13  DCM   H1            8.5732528751        8.4356816390      -10.0772760052  CLST          13          1.0000000000
        63        13  DCM   H2            8.2472575180       10.1572723488      -10.6027310491  CLST          13          1.0000000000
        64        13  DCM   CL1          10.4877109361        9.8433907354       -9.8218706254  CLST          13          1.0000000000
        65        13  DCM   CL2           9.3123743640        8.8663861546      -12.3157145750  CLST          13          1.0000000000
        66        14  DCM   C            -4.9677407046        9.4917258669       11.0775120505  CLST          14          1.0000000000
        67        14  DCM   H1           -4.5005071702       10.3286300599       11.6382924237  CLST          14          1.0000000000
        68        14  DCM   H2           -5.7862526952        9.0240695755       11.6635785496  CLST          14          1.0000000000
        69        14  DCM   CL1          -5.6401755388       10.1220743625        9.5476572845  CLST          14          1.0000000000
        70        14  DCM   CL2          -3.7233893871        8.2586606717       10.7286782211  CLST          14          1.0000000000
        71        15  DCM   C             2.7757294156        9.0787836958        5.5277911817  CLST          15          1.0000000000
        72        15  DCM   H1            2.8428451490        8.2770668215        4.7617240719  CLST          15          1.0000000000
        73        15  DCM   H2            1.7296104282        9.2064051884        5.8774302075  CLST          15          1.0000000000
        74        15  DCM   CL1           3.8039064370        8.6426386462        6.9199424756  CLST          15          1.0000000000
        75        15  DCM   CL2           3.3439140148       10.6188000961        4.8205328811  CLST          15          1.0000000000
        76        16  DCM   C            12.5978311484        0.8026662777       -7.4338186460  CLST          16          1.0000000000
        77        16  DCM   H1           13.3636906899        1.2086923274       -8.1271941300  CLST          16          1.0000000000
        78        16  DCM   H2           11.6080671664        1.2728139404       -7.6162284792  CLST          16          1.0000000000
        79        16  DCM   CL1          12.4632220179       -0.9636827152       -7.6838266096  CLST          16          1.0000000000
        80        16  DCM   CL2          13.1029594547        1.1398499731       -5.7523769844  CLST          16          1.0000000000
        81        17  DCM   C            -0.2494148831        0.3497084351       -9.7406606781  CLST          17          1.0000000000
        82        17  DCM   H1           -0.0692312719        0.0548690818      -10.7958711493  CLST          17          1.0000000000
        83        17  DCM   H2           -0.3309932935        1.4529663013       -9.6419069502  CLST          17          1.0000000000
        84        17  DCM   CL1          -1.7727672331       -0.3926745397       -9.1869432622  CLST          17          1.0000000000
        85        17  DCM   CL2           1.1102242610       -0.2335138334       -8.7393982468  CLST          17          1.0000000000
        86        18  DCM   C            -7.1002169195       -1.0829263800       -4.6776477354  CLST          18          1.0000000000
        87        18  DCM   H1           -6.2721554756       -0.6371684131       -4.0860880017  CLST          18          1.0000000000
        88        18  DCM   H2           -7.8172176807       -0.3049231288       -5.0136412963  CLST          18          1.0000000000
        89        18  DCM   CL1          -6.4173622948       -1.9050562313       -6.1094204667  CLST          18          1.0000000000
        90        18  DCM   CL2          -7.9658631053       -2.2690065231       -3.6639596536  CLST          18          1.0000000000
        91        19  DCM   C           -14.0484460183       -2.3976242916       -4.3155915773  CLST          19          1.0000000000
        92        19  DCM   H1          -14.7459433626       -1.7249196594       -4.8582641756  CLST          19          1.0000000000
        93        19  DCM   H2          -13.0116344657       -2.2837599720       -4.6976243795  CLST          19          1.0000000000
        94        19  DCM   CL1         -14.0749073074       -1.9891288610       -2.5765949959  CLST          19          1.0000000000
        95        19  DCM   CL2         -14.5707298193       -4.0920107275       -4.5428396703  CLST          19          1.0000000000
        96        20  DCM   C            -9.8076952299       -4.8085411807       -2.0986650927  CLST          20          1.0000000000
        97        20  DCM   H1           -9.1789705091       -4.9889699484       -2.9971596640  CLST          20          1.0000000000
        98        20  DCM   H2           -9.4143998352       -3.9591205690       -1.5010727937  CLST          20          1.0000000000
        99        20  DCM   CL1         -11.4677256853       -4.4217307162       -2.6216862310  CLST          20          1.0000000000
       100        20  DCM   CL2          -9.8233681206       -6.2770715125       -1.0831867167  CLST          20          1.0000000000
       101        21  DCM   C            11.5346554792      -10.6708971769        1.3100382829  CLST          21          1.0000000000
       102        21  DCM   H1           11.3572401681      -10.8631364862        2.3896835453  CLST          21          1.0000000000
       103        21  DCM   H2           12.2794644597      -11.3823480542        0.8948992889  CLST          21          1.0000000000
       104        21  DCM   CL1           9.9938012194      -10.8598479878        0.4237611127  CLST          21          1.0000000000
       105        21  DCM   CL2          12.1492484957       -9.0046718656        1.1093765457  CLST          21          1.0000000000
       106        22  DCM   C           -11.3599720012       -5.8658174405        9.9676072240  CLST          22          1.0000000000
       107        22  DCM   H1          -11.1614781772       -6.9583791579        9.9530137068  CLST          22          1.0000000000
       108        22  DCM   H2          -11.1042222633       -5.4041273730        8.9902993109  CLST          22          1.0000000000
       109        22  DCM   CL1         -13.0954876339       -5.5925325407       10.3043341743  CLST          22          1.0000000000
       110        22  DCM   CL2         -10.3687042104       -5.1068312304       11.2489091857  CLST          22          1.0000000000
       111        23  DCM   C             0.2318657396        5.6048724246       -1.3994199636  CLST          23          1.0000000000
       112        23  DCM   H1           -0.7456432669        5.0970847470       -1.5335415395  CLST          23          1.0000000000
       113        23  DCM   H2            0.4081030347        6.3488857332       -2.2050396738  CLST          23          1.0000000000
       114        23  DCM   CL1           0.2326789910        6.4419780026        0.1772057205  CLST          23          1.0000000000
       115        23  DCM   CL2           1.5347909116        4.3816506895       -1.4353167959  CLST          23          1.0000000000
       116        24  DCM   C             1.5472753893       -9.4175817504       11.7161518540  CLST          24          1.0000000000
       117        24  DCM   H1            1.5783952576       -9.2842273959       10.6141567642  CLST          24          1.0000000000
       118        24  DCM   H2            1.7252605302      -10.4777788191       11.9934629175  CLST          24          1.0000000000
       119        24  DCM   CL1           2.8135252318       -8.3988532730       12.4610050952  CLST          24          1.0000000000
       120        24  DCM   CL2          -0.0613486125       -8.9236264756       12.3186739578  CLST          24          1.0000000000
       121        25  DCM   C            -4.1325624365        8.3934037707       -9.8293982432  CLST          25          1.0000000000
       122        25  DCM   H1           -5.0101700722        8.3855546316      -10.5088873600  CLST          25          1.0000000000
       123        25  DCM   H2           -4.0029611734        7.4089346556       -9.3313902986  CLST          25          1.0000000000
       124        25  DCM   CL1          -2.6674209659        8.7573349518      -10.7830097127  CLST          25          1.0000000000
       125        25  DCM   CL2          -4.3728348876        9.6525997113       -8.5831960560  CLST          25          1.0000000000
       126        26  DCM   C            -3.9674886427       -6.3213694862       -0.1194453179  CLST          26          1.0000000000
       127        26  DCM   H1           -3.3768740606       -6.9534764316        0.5747754444  CLST          26          1.0000000000
       128        26  DCM   H2           -4.3433411966       -6.9159203771       -0.9783522259  CLST          26          1.0000000000
       129        26  DCM   CL1          -5.3583631234       -5.6260822219        0.7614122224  CLST          26          1.0000000000
       130        26  DCM   CL2          -2.9229839736       -5.0102416159       -0.7329232586  CLST          26          1.0000000000
       131        27  DCM   C            -3.9495599733        7.9609134670        5.1620103291  CLST          27          1.0000000000
       132        27  DCM   H1           -3.7859073769        6.8657865242        5.2380192742  CLST          27          1.0000000000
       133        27  DCM   H2           -4.9727273936        8.1878242945        4.7948496798  CLST          27          1.0000000000
       134        27  DCM   CL1          -3.7207776934        8.7055357546        6.7707225940  CLST          27          1.0000000000
       135        27  DCM   CL2          -2.7632320675        8.6359382649        4.0143453185  CLST          27          1.0000000000
       136        28  DCM   C            -4.5955265164       11.4620320070        2.5187688314  CLST          28          1.0000000000
       137        28  DCM   H1           -5.1764049289       12.2678280225        2.0245575411  CLST          28          1.0000000000
       138        28  DCM   H2           -4.7169985464       10.4954640366        1.9857099228  CLST          28          1.0000000000
       139        28  DCM   CL1          -2.8655212240       11.9149362724        2.5137085022  CLST          28          1.0000000000
       140        28  DCM   CL2          -5.1856053615       11.2811008686        4.1969411035  CLST          28          1.0000000000
       141        29  DCM   C            -9.5195975932       -0.9546339789        4.3447997019  CLST          29          1.0000000000
       142        29  DCM   H1           -9.2032184724        0.1006349284        4.2019917881  CLST          29          1.0000000000
       143        29  DCM   H2           -9.6571640801       -1.4641245735        3.3675762045  CLST          29          1.0000000000
       144        29  DCM   CL1          -8.2666960047       -1.8141318444        5.2884252434  CLST          29          1.0000000000
       145        29  DCM   CL2         -11.0694676612       -0.9803798497        5.2312610662  CLST          29          1.0000000000
       146        30  DCM   C             8.6704063852        3.4167159360      -13.6407154469  CLST          30          1.0000000000
       147        30  DCM   H1            8.0200403124        4.2565365005      -13.9632583137  CLST          30          1.0000000000
       148        30  DCM   H2            8.8965234138        2.7384617622      -14.4909918303  CLST          30          1.0000000000
       149        30  DCM   CL1          10.2013517885        4.0815609837      -12.9996636345  CLST          30          1.0000000000
       150        30  DCM   CL2           7.8302157280        2.4945500141      -12.3609778656  CLST          30          1.0000000000
       151        31  DCM   C            -6.2031796274       -2.0235101948      -11.8397956312  CLST          31          1.0000000000
       152        31  DCM   H1           -6.9627509450       -2.4880183383      -11.1743420244  CLST          31          1.0000000000
       153        31  DCM   H2           -5.6852475373       -2.7909866107      -12.4489272437  CLST          31          1.0000000000
       154        31  DCM   CL1          -7.0126684487       -0.8643252856      -12.9338584380  CLST          31          1.0000000000
       155        31  DCM   CL2          -5.0051160512       -1.1658134158      -10.8290291706  CLST          31          1.0000000000
       156        32  DCM   C            -4.8974479807       -7.6376946273        4.9249499445  CLST          32          1.0000000000
       157        32  DCM   H1           -4.1584297256       -7.5868512642        5.7511863196  CLST          32          1.0000000000
       158        32  DCM   H2           -5.6064355088       -6.7866731155        4.9749281296  CLST          32          1.0000000000
       159        32  DCM   CL1          -4.0310401230       -7.5790429751        3.3672110523  CLST          32          1.0000000000
       160        32  DCM   CL2          -5.8140375400       -9.1659672653        5.0448789252  CLST          32          1.0000000000
       161        33  DCM   C            -1.1337528390       -9.6047658379        4.5684037582  CLST          33          1.0000000000
       162        33  DCM   H1           -1.3209071677       -8.6635777218        4.0105084878  CLST          33          1.0000000000
       163        33  DCM   H2           -0.9425121537       -9.4008961636        5.6421906934  CLST          33          1.0000000000
       164        33  DCM   CL1          -2.5677537119      -10.6580116553        4.4389880091  CLST          33          1.0000000000
       165        33  DCM   CL2           0.2912676411      -10.4231792799        3.8664810257  CLST          33          1.0000000000
       166        34  DCM   C            -1.7639101246        2.2416725718       -1.5142816398  CLST          34          1.0000000000
       167        34  DCM   H1           -0.9481386413        2.6702018414       -2.1320024387  CLST          34          1.0000000000
       168        34  DCM   H2           -1.9721403042        1.1937404106       -1.8139337943  CLST          34          1.0000000000
       169        34  DCM   CL1          -1.2723957919        2.2796787832        0.2037383182  CLST          34          1.0000000000
       170        34  DCM   CL2          -3.2466394822        3.2111719406       -1.7398964380  CLST          34          1.0000000000
       171        35  DCM   C            -6.1908009868       -1.1885154425       11.6972133637  CLST          35          1.0000000000
       172        35  DCM   H1           -7.1384710871       -0.6381567054       11.8789986041  CLST          35          1.0000000000
       173        35  DCM   H2           -5.9734881790       -1.8912626481       12.5283342473  CLST          35          1.0000000000
       174        35  DCM   CL1          -6.3312818364       -2.1123001328       10.1742489699  CLST          35          1.0000000000
       175        35  DCM   CL2          -4.8502999269       -0.0157999521       11.5691045816  CLST          35          1.0000000000
       176        36  DCM   C            -8.4620107905        1.5271626116        8.7446037361  CLST          36          1.0000000000
       177        36  DCM   H1           -9.4546720396        1.6223907029        9.2337188522  CLST          36          1.0000000000
       178        36  DCM   H2           -7.9322916140        0.6114501521        9.0826928079  CLST          36          1.0000000000
       179        36  DCM   CL1          -8.6893813870        1.4485477791        6.9747964651  CLST          36          1.0000000000
       180        36  DCM   CL2          -7.4735901833        2.9524540094        9.1597599387  CLST          36          1.0000000000
       181        37  DCM   C             6.4573115953       -5.3809088512        8.8377349344  CLST          37          1.0000000000
       182        37  DCM   H1            6.5920207774       -5.3823816633        7.7354599580  CLST          37          1.0000000000
       183        37  DCM   H2            7.4103406571       -5.1379066017        9.3493620363  CLST          37          1.0000000000
       184        37  DCM   CL1           5.2360108085       -4.1573861100        9.2828782756  CLST          37          1.0000000000
       185        37  DCM   CL2           5.9179748883       -6.9971201750        9.3720705363  CLST          37          1.0000000000
       186        38  DCM   C             2.8018906998        5.9207676370       -8.0363360249  CLST          38          1.0000000000
       187        38  DCM   H1            2.6718208837        5.2379583525       -7.1705286241  CLST          38          1.0000000000
       188        38  DCM   H2            3.7628909481        6.4727437627       -7.9717041065  CLST          38          1.0000000000
       189        38  DCM   CL1           2.7825770077        4.9557340565       -9.5355723782  CLST          38          1.0000000000
       190        38  DCM   CL2           1.4558052811        7.0908467508       -8.0660460979  CLST          38          1.0000000000
       191        39  DCM   C             0.9325066477        1.4546274786        9.6064491451  CLST          39          1.0000000000
       192        39  DCM   H1            0.3268784042        0.7218946516        9.0325230492  CLST          39          1.0000000000
       193        39  DCM   H2            0.7985497564        1.3173968550       10.6996251643  CLST          39          1.0000000000
       194        39  DCM   CL1           2.6557262041        1.2380464968        9.1921737283  CLST          39          1.0000000000
       195        39  DCM   CL2           0.4177849956        3.1060428387        9.1742728879  CLST          39          1.0000000000
       196        40  DCM   C            10.4992903799       -5.4777680608        1.6563503764  CLST          40          1.0000000000
       197        40  DCM   H1           10.5218096119       -6.5251932203        1.2884639658  CLST          40          1.0000000000
       198        40  DCM   H2           11.4449663567       -5.2178955853        2.1770003983  CLST          40          1.0000000000
       199        40  DCM   CL1          10.2819728848       -4.3754078542        0.2668446475  CLST          40          1.0000000000
       200        40  DCM   CL2           9.1348597913       -5.2946821200        2.7954662879  CLST          40          1.0000000000
       201        41  DCM   C            -0.1559949736      -12.0315237840        7.3537062095  CLST          41          1.0000000000
       202        41  DCM   H1           -0.8317946863      -11.8616824212        6.4903665699  CLST          41          1.0000000000
       203        41  DCM   H2           -0.5989309937      -12.7628111449        8.0607300157  CLST          41          1.0000000000
       204        41  DCM   CL1           1.3979166333      -12.6753229791        6.7566242516  CLST          41          1.0000000000
       205        41  DCM   CL2           0.1169263042      -10.4830306269        8.2050202385  CLST          41          1.0000000000
       206        42  DCM   C             3.9953932413        4.4865642752        6.8761760507  CLST          42          1.0000000000
       207        42  DCM   H1            4.6318716493        4.5811436108        7.7807810413  CLST          42          1.0000000000
       208        42  DCM   H2            3.8573180787        3.4212716326        6.5958055959  CLST          42          1.0000000000
       209        42  DCM   CL1           2.3989732778        5.2070739294        7.2150311158  CLST          42          1.0000000000
       210        42  DCM   CL2           4.7676064161        5.3599312515        5.5220614417  CLST          42          1.0000000000
       211        43  DCM   C            -7.8728607556       -5.8628704849       -7.7083124737  CLST          43          1.0000000000
       212        43  DCM   H1           -7.0514538040       -6.5570428747       -7.9836282540  CLST          43          1.0000000000
       213        43  DCM   H2           -8.8627854992       -6.3472600038       -7.8363300249  CLST          43          1.0000000000
       214        43  DCM   CL1          -7.6779978393       -5.3825543488       -5.9990585561  CLST          43          1.0000000000
       215        43  DCM   CL2          -7.7932523198       -4.4183753152       -8.7578570321  CLST          43          1.0000000000
       216        44  DCM   C             1.5023797274        1.9149648378      -13.2208266568  CLST          44          1.0000000000
       217        44  DCM   H1            2.4189272657        2.0806897353      -13.8262429408  CLST          44          1.0000000000
       218        44  DCM   H2            1.1610332276        0.8607422893      -13.2860275835  CLST          44          1.0000000000
       219        44  DCM   CL1           1.8591081816        2.3012798985      -11.5162022526  CLST          44          1.0000000000
       220        44  DCM   CL2           0.2074868907        2.9792588729      -13.8280455940  CLST          44          1.0000000000
       221        45  DCM   C             5.7929573454       -0.6015953588       10.6948184398  CLST          45          1.0000000000
       222        45  DCM   H1            4.8436840466       -0.0285710200       10.7254408409  CLST          45          1.0000000000
       223        45  DCM   H2            5.8878024104       -1.1558095341        9.7364206723  CLST          45          1.0000000000
       224        45  DCM   CL1           7.1685089009        0.5286733686       10.8588542673  CLST          45          1.0000000000
       225        45  DCM   CL2           5.8100695337       -1.7635180934       12.0516958454  CLST          45          1.0000000000
       226        46  DCM   C             5.5174986113       12.0897861958        7.6516865663  CLST          46          1.0000000000
       227        46  DCM   H1            5.3855547290       11.0973717221        7.1716602348  CLST          46          1.0000000000
       228        46  DCM   H2            6.1108997716       12.7668782729        7.0018550122  CLST          46          1.0000000000
       229        46  DCM   CL1           3.9105527070       12.8163499313        7.9441142492  CLST          46          1.0000000000
       230        46  DCM   CL2           6.3720192218       11.8743551154        9.2055634704  CLST          46          1.0000000000
       231        47  DCM   C             6.5685956580       -3.2796485436        0.2799254092  CLST          47          1.0000000000
       232        47  DCM   H1            6.3409397482       -2.9488000524       -0.7558223332  CLST          47          1.0000000000
       233        47  DCM   H2            7.1132121501       -4.2473307175        0.2808984746  CLST          47          1.0000000000
       234        47  DCM   CL1           7.5866245041       -2.0455352053        1.0758747709  CLST          47          1.0000000000
       235        47  DCM   CL2           5.0360271929       -3.4761317018        1.1770508730  CLST          47          1.0000000000
       236        48  DCM   C             4.7035706598        5.5030703519       -4.0422135855  CLST          48          1.0000000000
       237        48  DCM   H1            4.7858484578        4.4845739084       -3.6070612330  CLST          48          1.0000000000
       238        48  DCM   H2            5.2867867268        5.5836417857       -4.9843127723  CLST          48          1.0000000000
       239        48  DCM   CL1           2.9851030725        5.8540732403       -4.3841537189  CLST          48          1.0000000000
       240        48  DCM   CL2           5.3369063402        6.6890214702       -2.8656840586  CLST          48          1.0000000000
       241        49  DCM   C             3.5692021452       11.9928667296       11.6034929028  CLST          49          1.0000000000
       242        49  DCM   H1            3.6940113225       11.4133322031       10.6646926669  CLST          49          1.0000000000
       243        49  DCM   H2            3.4852388325       13.0791386835       11.3873918023  CLST          49          1.0000000000
       244        49  DCM   CL1           2.0863687890       11.4387850249       12.4363072282  CLST          49          1.0000000000
       245        49  DCM   CL2           4.9904260657       11.7180191276       12.6527416502  CLST          49          1.0000000000
       246        50  DCM   C            -5.6588049445        5.9316006674        8.4715442101  CLST          50          1.0000000000
       247        50  DCM   H1           -6.6327171317        5.7746378618        8.9817018147  CLST          50          1.0000000000
       248        50  DCM   H2           -5.4081755545        7.0120987877        8.4248612285  CLST          50          1.0000000000
       249        50  DCM   CL1          -4.3819734283        5.0661622620        9.3678146249  CLST          50          1.0000000000
       250        50  DCM   CL2          -5.7534852128        5.2764580963        6.8146121082  CLST          50          1.0000000000
       251        51  DCM   C            -5.7663100730        5.2302208248       -5.7523690411  CLST          51          1.0000000000
       252        51  DCM   H1           -6.0404281094        4.6673149678       -6.6690511679  CLST          51          1.0000000000
       253        51  DCM   H2           -6.5959198108        5.2106630619       -5.0152165494  CLST          51          1.0000000000
       254        51  DCM   CL1          -4.3116595783        4.4873612805       -5.0285220196  CLST          51          1.0000000000
       255        51  DCM   CL2          -5.4174329298        6.9266300506       -6.1856235703  CLST          51          1.0000000000
       256        52  DCM   C            -4.9305515510        1.2341489795       -8.0592888590  CLST          52          1.0000000000
       257        52  DCM   H1           -4.4546365768        0.2431611117       -7.9014898752  CLST          52          1.0000000000
       258        52  DCM   H2           -5.5937244568        1.2225570484       -8.9498803385  CLST          52          1.0000000000
       259        52  DCM   CL1          -5.8983919565        1.6439746734       -6.6156385863  CLST          52          1.0000000000
       260        52  DCM   CL2          -3.6545937370        2.4624178815       -8.2973452724  CLST          52          1.0000000000
       261        53  DCM   C             3.8783688672        9.5393731591      -12.1386810047  CLST          53          1.0000000000
       262        53  DCM   H1            3.7765163476       10.5755561245      -11.7516184200  CLST          53          1.0000000000
       263        53  DCM   H2            3.2651605202        9.3920286081      -13.0528683914  CLST          53          1.0000000000
       264        53  DCM   CL1           5.5948574176        9.2346960066      -12.5327893383  CLST          53          1.0000000000
       265        53  DCM   CL2           3.3363352182        8.3929209124      -10.8787729341  CLST          53          1.0000000000
       266        54  DCM   C            10.0111978758       10.7046666505        8.4832528412  CLST          54          1.0000000000
       267        54  DCM   H1            9.3838465109       11.0146595259        9.3460195508  CLST          54          1.0000000000
       268        54  DCM   H2            9.9527858390        9.6080750223        8.3237788566  CLST          54          1.0000000000
       269        54  DCM   CL1           9.4341000759       11.5383742154        7.0110573909  CLST          54          1.0000000000
       270        54  DCM   CL2          11.7115475521       11.1507949121        8.8037618720  CLST          54          1.0000000000
       271        55  DCM   C            -7.5031720681       -8.8009310565        0.7270737576  CLST          55          1.0000000000
       272        55  DCM   H1           -8.1197057475       -9.2969115795       -0.0524335535  CLST          55          1.0000000000
       273        55  DCM   H2           -7.5258880221       -7.6978481801        0.6085872616  CLST          55          1.0000000000
       274        55  DCM   CL1          -8.1432486211       -9.2313108206        2.3374771994  CLST          55          1.0000000000
       275        55  DCM   CL2          -5.8147645873       -9.3647130612        0.5886392106  CLST          55          1.0000000000
       276        56  DCM   C            -7.6183214086       -6.1953219819        7.4378157736  CLST          56          1.0000000000
       277        56  DCM   H1           -7.0335501237       -5.7517903016        6.6059669337  CLST          56          1.0000000000
       278        56  DCM   H2           -8.5831369553       -6.6004238459        7.0707928422  CLST          56          1.0000000000
       279        56  DCM   CL1          -6.6703923991       -7.5100168052        8.1892335924  CLST          56          1.0000000000
       280        56  DCM   CL2          -7.9511698956       -4.9307038014        8.6503153041  CLST          56          1.0000000000
       281        57  DCM   C             9.2180474215        1.5402226411        1.2991923446  CLST          57          1.0000000000
       282        57  DCM   H1            9.0904900161        0.8154070699        0.4671373147  CLST          57          1.0000000000
       283        57  DCM   H2            8.7151836739        1.1767396501        2.2198342511  CLST          57          1.0000000000
       284        57  DCM   CL1          10.9613994659        1.7460536842        1.6336996495  CLST          57          1.0000000000
       285        57  DCM   CL2           8.5068841540        3.1103949800        0.8232934128  CLST          57          1.0000000000
       286        58  DCM   C            -0.3185398616       -5.3226018325       -9.5262659793  CLST          58          1.0000000000
       287        58  DCM   H1            0.4844275294       -5.8775545878      -10.0549424737  CLST          58          1.0000000000
       288        58  DCM   H2           -0.2075496404       -5.4040805200       -8.4239684767  CLST          58          1.0000000000
       289        58  DCM   CL1          -0.2306357892       -3.6006500476       -9.9940929252  CLST          58          1.0000000000
       290        58  DCM   CL2          -1.8977127266       -6.0068591582      -10.0034697324  CLST          58          1.0000000000
       291        59  DCM   C             9.4743298022       10.1143650669       -6.1194857808  CLST          59          1.0000000000
       292        59  DCM   H1           10.3708745157        9.5608551198       -6.4702312395  CLST          59          1.0000000000
       293        59  DCM   H2            9.2616395026        9.8970175656       -5.0518867338  CLST          59          1.0000000000
       294        59  DCM   CL1           9.7542848828       11.8699465404       -6.3077038305  CLST          59          1.0000000000
       295        59  DCM   CL2           8.0661564857        9.6144436068       -7.0968484118  CLST          59          1.0000000000
       296        60  DCM   C             1.7280659813       -1.2841454528       -1.6289917107  CLST          60          1.0000000000
       297        60  DCM   H1            1.3922900646       -1.7196050269       -2.5930149824  CLST          60          1.0000000000
       298        60  DCM   H2            1.2361350374       -1.7901297620       -0.7730021341  CLST          60          1.0000000000
       299        60  DCM   CL1           3.4961924664       -1.4869950602       -1.4879913686  CLST          60          1.0000000000
       300        60  DCM   CL2           1.3155185164        0.4532823345       -1.5915739382  CLST          60          1.0000000000
       301        61  DCM   C            -4.9784427424        6.5445286236       -2.0972078132  CLST          61          1.0000000000
       302        61  DCM   H1           -5.4556113684        6.7663017417       -3.0749759961  CLST          61          1.0000000000
       303        61  DCM   H2           -5.2344621118        5.5223063413       -1.7475107452  CLST          61          1.0000000000
       304        61  DCM   CL1          -3.2060660135        6.6729168709       -2.2705942433  CLST          61          1.0000000000
       305        61  DCM   CL2          -5.5565565703        7.7286000653       -0.8945530992  CLST          61          1.0000000000
       306        62  DCM   C             3.4875623270       -3.4879836999       -8.8660724671  CLST          62          1.0000000000
       307        62  DCM   H1            4.0055539108       -4.4675654291       -8.7995478122  CLST          62          1.0000000000
       308        62  DCM   H2            2.9232560652       -3.3959237634       -9.8181350661  CLST          62          1.0000000000
       309        62  DCM   CL1           2.3472206371       -3.3460277352       -7.5009895174  CLST          62          1.0000000000
       310        62  DCM   CL2           4.7047995196       -2.1831201855       -8.7758852260  CLST          62          1.0000000000
       311        63  DCM   C            10.5551025400       -2.4890241923        4.5974478243  CLST          63          1.0000000000
       312        63  DCM   H1           10.6556219273       -1.7738224154        5.4411793438  CLST          63          1.0000000000
       313        63  DCM   H2            9.5823452808       -3.0230795972        4.6481981886  CLST          63          1.0000000000
       314        63  DCM   CL1          10.6536523368       -1.5988480431        3.0503522726  CLST          63          1.0000000000
       315        63  DCM   CL2          11.8836276216       -3.6793780248        4.6839474950  CLST          63          1.0000000000
       316        64  DCM   C            -9.3279987017       -9.2823324905        6.0518387698  CLST          64          1.0000000000
       317        64  DCM   H1           -8.4759709009       -9.5881876490        6.6955048374  CLST          64          1.0000000000
       318        64  DCM   H2           -9.0155430690       -8.5119082494        5.3149716823  CLST          64          1.0000000000
       319        64  DCM   CL1          -9.9302364154      -10.7153746391        5.1697961197  CLST          64          1.0000000000
       320        64  DCM   CL2         -10.6267249328       -8.6111471322        7.0830150952  CLST          64          1.0000000000
       321        65  DCM   C            -1.4231961763       -1.2206988725        5.5330792461  CLST          65          1.0000000000
       322        65  DCM   H1           -1.0980660598       -0.3702256384        6.1657622327  CLST          65          1.0000000000
       323        65  DCM   H2           -0.7318764993       -1.3685974186        4.6769963867  CLST          65          1.0000000000
       324        65  DCM   CL1          -1.4476491480       -2.7000566413        6.5323525432  CLST          65          1.0000000000
       325        65  DCM   CL2          -3.0601606758       -0.8756917741        4.9082989692  CLST          65          1.0000000000
       326        66  DCM   C            -1.7788366910        7.4773174581       -5.3542225434  CLST          66          1.0000000000
       327        66  DCM   H1           -2.0623747298        6.4813100937       -4.9563880590  CLST          66          1.0000000000
       328        66  DCM   H2           -2.4409389946        8.2693730426       -4.9445868234  CLST          66          1.0000000000
       329        66  DCM   CL1          -0.0878090650        7.8292011569       -4.8935662901  CLST          66          1.0000000000
       330        66  DCM   CL2          -1.9301249872        7.4488434904       -7.1335386874  CLST          66          1.0000000000
       331        67  DCM   C             6.2459440328        5.5845702861      -10.1124105194  CLST          67          1.0000000000
       332        67  DCM   H1            6.2452476359        4.4793315592       -9.9967338759  CLST          67          1.0000000000
       333        67  DCM   H2            5.2407496385        5.9602029239      -10.3910105357  CLST          67          1.0000000000
       334        67  DCM   CL1           6.7322197526        6.3401377861       -8.5677078156  CLST          67          1.0000000000
       335        67  DCM   CL2           7.3895270901        6.0372342811      -11.4065845005  CLST          67          1.0000000000
       336        68  DCM   C             0.7165759015       10.1087911128        1.3481940643  CLST          68          1.0000000000
       337        68  DCM   H1            0.7935831188        9.3856026353        0.5102269054  CLST          68          1.0000000000
       338        68  DCM   H2           -0.1567254210       10.7811161439        1.2140409865  CLST          68          1.0000000000
       339        68  DCM   CL1           0.5214709383        9.2051708242        2.8755354333  CLST          68          1.0000000000
       340        68  DCM   CL2           2.2076847403       11.0891447397        1.4101505633  CLST          68          1.0000000000
       341        69  DCM   C            -5.9181806984        3.3306512933       12.4504237036  CLST          69          1.0000000000
       342        69  DCM   H1           -5.5060584786        2.9762174785       11.4818909797  CLST          69          1.0000000000
       343        69  DCM   H2           -5.1609975597        3.2444337739       13.2575744511  CLST          69          1.0000000000
       344        69  DCM   CL1          -6.3957170549        5.0421944750       12.2815322212  CLST          69          1.0000000000
       345        69  DCM   CL2          -7.3456821214        2.3429003248       12.8759186750  CLST          69          1.0000000000
       346        70  DCM   C            -7.5752845728        3.2239975120       -2.8929143451  CLST          70          1.0000000000
       347        70  DCM   H1           -6.4876781911        3.2196435685       -3.1192545780  CLST          70          1.0000000000
       348        70  DCM   H2           -7.8057365012        2.5530306811       -2.0398464368  CLST          70          1.0000000000
       349        70  DCM   CL1          -8.0847942788        4.8848659661       -2.4744362950  CLST          70          1.0000000000
       350        70  DCM   CL2          -8.4769044843        2.6639109220       -4.3291602326  CLST          70          1.0000000000
       351        71  DCM   C            11.6732848043        4.8162796654       -0.0970192444  CLST          71          1.0000000000
       352        71  DCM   H1           12.3951907895        4.2341560342        0.5131392349  CLST          71          1.0000000000
       353        71  DCM   H2           10.7331199537        4.9967477813        0.4650460567  CLST          71          1.0000000000
       354        71  DCM   CL1          12.4038832910        6.3903207720       -0.5208589451  CLST          71          1.0000000000
       355        71  DCM   CL2          11.2966383689        3.8992546678       -1.5844796800  CLST          71          1.0000000000
       356        72  DCM   C             3.4205563743       -8.1600129445      -11.7356363395  CLST          72          1.0000000000
       357        72  DCM   H1            3.6469478023       -7.5549225320      -10.8331180758  CLST          72          1.0000000000
       358        72  DCM   H2            2.7350962257       -7.6164751133      -12.4214641286  CLST          72          1.0000000000
       359        72  DCM   CL1           4.9473741530       -8.5099447833      -12.5964151646  CLST          72          1.0000000000
       360        72  DCM   CL2           2.6459003366       -9.6893781303      -11.2319051800  CLST          72          1.0000000000
       361        73  DCM   C            10.3779590079       -8.5948521742       -3.1363985358  CLST          73          1.0000000000
       362        73  DCM   H1           10.2142178042       -7.9967114574       -4.0577993980  CLST          73          1.0000000000
       363        73  DCM   H2           11.2849376299       -9.2293992891       -3.2252275710  CLST          73          1.0000000000
       364        73  DCM   CL1          10.5891673653       -7.4847339048       -1.7540989369  CLST          73          1.0000000000
       365        73  DCM   CL2           8.9587620937       -9.6464984477       -2.8627030366  CLST          73          1.0000000000
       366        74  DCM   C             6.3364604788      -11.0940442434       -0.6893460200  CLST          74          1.0000000000
       367        74  DCM   H1            6.4097933696      -10.0773843258       -1.1286714237  CLST          74          1.0000000000
       368        74  DCM   H2            7.3303625733      -11.5871545272       -0.6525231802  CLST          74          1.0000000000
       369        74  DCM   CL1           5.6900542771      -10.9550394125        0.9673813106  CLST          74          1.0000000000
       370        74  DCM   CL2           5.2334173327      -12.0884823197       -1.6803525660  CLST          74          1.0000000000
       371        75  DCM   C           -10.6959907529       -0.8548253914       -1.3968347439  CLST          75          1.0000000000
       372        75  DCM   H1          -10.6609989106       -1.5870320049       -2.2304665336  CLST          75          1.0000000000
       373        75  DCM   H2          -11.5504315730       -0.1565543039       -1.5185291025  CLST          75          1.0000000000
       374        75  DCM   CL1         -10.8785014765       -1.7312366340        0.1470382431  CLST          75          1.0000000000
       375        75  DCM   CL2          -9.1721119328        0.0766864629       -1.3820769147  CLST          75          1.0000000000
       376        76  DCM   C           -12.2928449831        6.4264721942        1.0696145465  CLST          76          1.0000000000
       377        76  DCM   H1          -11.2979793845        6.5368139336        1.5495605440  CLST          76          1.0000000000
       378        76  DCM   H2          -12.9459798570        7.2951822039        1.2989197087  CLST          76          1.0000000000
       379        76  DCM   CL1         -12.0690256140        6.3153914920       -0.7009184060  CLST          76          1.0000000000
       380        76  DCM   CL2         -13.0684348677        4.9373548373        1.6831408556  CLST          76          1.0000000000
       381        77  DCM   C           -11.0447034181       -3.3238933215       -7.7325634220  CLST          77          1.0000000000
       382        77  DCM   H1          -10.7331178688       -2.5038182593       -8.4131626985  CLST          77          1.0000000000
       383        77  DCM   H2          -10.6089472897       -4.2927793689       -8.0494834865  CLST          77          1.0000000000
       384        77  DCM   CL1         -10.4811649647       -2.9554791232       -6.0781917869  CLST          77          1.0000000000
       385        77  DCM   CL2         -12.8258842014       -3.4595976546       -7.7550627240  CLST          77          1.0000000000
       386        78  DCM   C            -9.0371242475      -11.0677074162       -6.3056434135  CLST          78          1.0000000000
       387        78  DCM   H1           -9.1307105619      -11.7645725146       -7.1655581599  CLST          78          1.0000000000
       388        78  DCM   H2           -9.9543760325      -11.0776017702       -5.6789493371  CLST          78          1.0000000000
       389        78  DCM   CL1          -7.6426188801      -11.5652690595       -5.3053176766  CLST          78          1.0000000000
       390        78  DCM   CL2          -8.7731119482       -9.4123787076       -6.9238615233  CLST          78          1.0000000000
       391        79  DCM   C            -2.3484795700       -2.2048824032      -13.5767813690  CLST          79          1.0000000000
       392        79  DCM   H1           -2.3384745990       -2.5759888671      -14.6248535319  CLST          79          1.0000000000
       393        79  DCM   H2           -3.0876075838       -1.3852212771      -13.4521141138  CLST          79          1.0000000000
       394        79  DCM   CL1          -2.7828085561       -3.5550203236      -12.4929317173  CLST          79          1.0000000000
       395        79  DCM   CL2          -0.7214583314       -1.5949267148      -13.1610121105  CLST          79          1.0000000000
       396        80  DCM   C             8.5253533826       -1.1762461416       -6.4275056481  CLST          80          1.0000000000
       397        80  DCM   H1            9.0490853341       -1.5657844110       -7.3244166185  CLST          80          1.0000000000
       398        80  DCM   H2            8.2105404628       -2.0028919951       -5.7567459782  CLST          80          1.0000000000
       399        80  DCM   CL1           9.6382818145       -0.1024861968       -5.5387734611  CLST          80          1.0000000000
       400        80  DCM   CL2           7.0807861795       -0.2605800166       -6.9446107882  CLST          80          1.0000000000
       401        81  DCM   C             2.1108811272       -2.0345595785       12.3932666473  CLST          81          1.0000000000
       402        81  DCM   H1            1.0957606320       -2.2506349924       12.7859047451  CLST          81          1.0000000000
       403        81  DCM   H2            2.8868830692       -2.5589759306       12.9879588999  CLST          81          1.0000000000
       404        81  DCM   CL1           2.2047674406       -2.5756341143       10.6942229455  CLST          81          1.0000000000
       405        81  DCM   CL2           2.4067503167       -0.2775793740       12.4755477297  CLST          81          1.0000000000
       406        82  DCM   C            -2.4614627564        9.8815098872       -0.9085876999  CLST          82          1.0000000000
       407        82  DCM   H1           -3.3614136953        9.6517316063       -1.5149929430  CLST          82          1.0000000000
       408        82  DCM   H2           -2.4714136583       10.9377217344       -0.5693458042  CLST          82          1.0000000000
       409        82  DCM   CL1          -2.4435832216        8.8202287981        0.5254951197  CLST          82          1.0000000000
       410        82  DCM   CL2          -1.0069560241        9.5905642776       -1.9040597637  CLST          82          1.0000000000
       411        83  DCM   C             0.3190534269       -5.5799413951      -13.6794418413  CLST          83          1.0000000000
       412        83  DCM   H1           -0.5208499816       -5.6255111297      -12.9542930422  CLST          83          1.0000000000
       413        83  DCM   H2            0.7159537799       -6.5948461223      -13.8975163127  CLST          83          1.0000000000
       414        83  DCM   CL1          -0.2679249972       -4.8488466907      -15.1998360226  CLST          83          1.0000000000
       415        83  DCM   CL2           1.6260100916       -4.5802614376      -12.9832316521  CLST          83          1.0000000000
       416        84  DCM   C            -9.5263855584        6.7716907560       11.6477627366  CLST          84          1.0000000000
       417        84  DCM   H1           -9.1540823350        6.5838873542       12.6767259266  CLST          84          1.0000000000
       418        84  DCM   H2          -10.4754769047        7.3476863915       11.6619786516  CLST          84          1.0000000000
       419        84  DCM   CL1          -8.2941578512        7.7054041572       10.7499391020  CLST          84          1.0000000000
       420        84  DCM   CL2          -9.8113948643        5.2022332619       10.8400252665  CLST          84          1.0000000000
       421        85  DCM   C             6.6991253375       -4.4118698692      -11.3637188220  CLST          85          1.0000000000
       422        85  DCM   H1            6.7612373982       -3.8725105266      -10.3939549463  CLST          85          1.0000000000
       423        85  DCM   H2            7.3179716725       -5.3332929903      -11.3468543328  CLST          85          1.0000000000
       424        85  DCM   CL1           4.9986188136       -4.8618055062      -11.6723095798  CLST          85          1.0000000000
       425        85  DCM   CL2           7.2824098509       -3.3390141327      -12.6679694193  CLST          85          1.0000000000
       426        86  DCM   C             9.8859924279       -7.3717494393        9.7841423426  CLST          86          1.0000000000
       427        86  DCM   H1            9.0353733365       -7.1357161397       10.4578202308  CLST          86          1.0000000000
       428        86  DCM   H2           10.8053874052       -6.8334835270       10.0984218005  CLST          86          1.0000000000
       429        86  DCM   CL1          10.2056839206       -9.1308656963        9.8268221840  CLST          86          1.0000000000
       430        86  DCM   CL2           9.4660935816       -6.8763604386        8.1185080068  CLST          86          1.0000000000
       431        87  DCM   C            -1.7422459892        4.2746048892       11.5769577717  CLST          87          1.0000000000
       432        87  DCM   H1           -0.7034516618        4.2684088782       11.9676814671  CLST          87          1.0000000000
       433        87  DCM   H2           -1.7668848998        4.6550290833       10.5342416323  CLST          87          1.0000000000
       434        87  DCM   CL1          -2.3904650870        2.6105783930       11.6071714670  CLST          87          1.0000000000
       435        87  DCM   CL2          -2.7476295658        5.3308510465       12.6052272696  CLST          87          1.0000000000
       436        88  DCM   C            12.9612905993       -1.4768422241        8.9546215209  CLST          88          1.0000000000
       437        88  DCM   H1           13.8748163707       -0.9652754316        8.5872698335  CLST          88          1.0000000000
       438        88  DCM   H2           13.0480188024       -1.7279176525       10.0326784691  CLST          88          1.0000000000
       439        88  DCM   CL1          11.5640899531       -0.3900034908        8.7145963980  CLST          88          1.0000000000
       440        88  DCM   CL2          12.7301276535       -2.9853725377        8.0236996803  CLST          88          1.0000000000
       441        89  DCM   C             3.2315713384        9.3492425974       -5.6171443816  CLST          89          1.0000000000
       442        89  DCM   H1            2.4812956624        9.1281218325       -6.4027011806  CLST          89          1.0000000000
       443        89  DCM   H2            2.9073014591        8.9462094386       -4.6347148904  CLST          89          1.0000000000
       444        89  DCM   CL1           4.7883961012        8.6016967151       -6.0716793043  CLST          89          1.0000000000
       445        89  DCM   CL2           3.4242421532       11.1192915305       -5.4925044459  CLST          89          1.0000000000
       446        90  DCM   C            11.8923649906       -7.1625659919        5.6303865110  CLST          90          1.0000000000
       447        90  DCM   H1           12.2266414982       -6.3346896906        6.2891708981  CLST          90          1.0000000000
       448        90  DCM   H2           10.8088881502       -7.0723807587        5.4074754391  CLST          90          1.0000000000
       449        90  DCM   CL1          12.8098674513       -7.1002970507        4.0963166055  CLST          90          1.0000000000
       450        90  DCM   CL2          12.1967540619       -8.7206590707        6.4544585644  CLST          90          1.0000000000
       451        91  DCM   C            -2.4496165276       -8.6952925327      -12.5894929965  CLST          91          1.0000000000
       452        91  DCM   H1           -2.7081878126       -9.6810757129      -13.0322131345  CLST          91          1.0000000000
       453        91  DCM   H2           -3.0394813745       -8.5053910718      -11.6680774589  CLST          91          1.0000000000
       454        91  DCM   CL1          -0.7107057057       -8.6824801350      -12.1771694433  CLST          91          1.0000000000
       455        91  DCM   CL2          -2.8027847030       -7.4126443748      -13.7844634005  CLST          91          1.0000000000
       456        92  DCM   C             4.1983110045        1.7487800700       -8.3811619351  CLST          92          1.0000000000
       457        92  DCM   H1            4.1197876018        0.7824505411       -7.8395968428  CLST          92          1.0000000000
       458        92  DCM   H2            3.1998541486        2.0895365626       -8.7273786153  CLST          92          1.0000000000
       459        92  DCM   CL1           4.8934842827        2.9844199787       -7.2894154923  CLST          92          1.0000000000
       460        92  DCM   CL2           5.2597883186        1.5298586412       -9.8017082654  CLST          92          1.0000000000
       461        93  DCM   C            -8.9424209760        3.8031561153      -11.8018043796  CLST          93          1.0000000000
       462        93  DCM   H1           -9.4969404431        4.2386892791      -10.9438413706  CLST          93          1.0000000000
       463        93  DCM   H2           -7.9998811600        3.3256821830      -11.4626059327  CLST          93          1.0000000000
       464        93  DCM   CL1          -9.9671196148        2.5704677050      -12.5917658151  CLST          93          1.0000000000
       465        93  DCM   CL2          -8.5455509739        5.0986467685      -12.9640547920  CLST          93          1.0000000000
       466        94  DCM   C             4.2264234601        8.3873309955       10.5673498914  CLST          94          1.0000000000
       467        94  DCM   H1            3.4164873127        8.9195893131       10.0274628078  CLST          94          1.0000000000
       468        94  DCM   H2            5.1978833669        8.9079913778       10.4342158705  CLST          94          1.0000000000
       469        94  DCM   CL1           3.8279324738        8.3213132512       12.3066454848  CLST          94          1.0000000000
       470        94  DCM   CL2           4.3572008294        6.7270948250        9.9249758022  CLST          94          1.0000000000
       471        95  DCM   C           -10.7918485290        0.7932050159       -6.2635283392  CLST          95          1.0000000000
       472        95  DCM   H1           -9.7947614544        0.3360470790       -6.4350584342  CLST          95          1.0000000000
       473        95  DCM   H2          -10.7362323557        1.9015299086       -6.3109513844  CLST          95          1.0000000000
       474        95  DCM   CL1         -11.9189651898        0.2162816911       -7.5227894801  CLST          95          1.0000000000
       475        95  DCM   CL2         -11.3841303050        0.3065733781       -4.6493697299  CLST          95          1.0000000000
       476        96  DCM   C             2.9712887716       -8.1625584863       -6.9254933827  CLST          96          1.0000000000
       477        96  DCM   H1            2.1346488739       -8.3869123170       -6.2308391805  CLST          96          1.0000000000
       478        96  DCM   H2            3.8316596902       -7.7191035022       -6.3831036795  CLST          96          1.0000000000
       479        96  DCM   CL1           3.4972736003       -9.6756384990       -7.7176077092  CLST          96          1.0000000000
       480        96  DCM   CL2           2.4105210306       -6.9977958985       -8.1569827798  CLST          96          1.0000000000
       481        97  DCM   C            -2.7721782629       12.5809230270        9.7701066527  CLST          97          1.0000000000
       482        97  DCM   H1           -2.1538683242       13.3804208935        9.3104486613  CLST          97          1.0000000000
       483        97  DCM   H2           -3.5942952646       12.2740966783        9.0894497576  CLST          97          1.0000000000
       484        97  DCM   CL1          -1.7307334213       11.1687669654       10.1007853669  CLST          97          1.0000000000
       485        97  DCM   CL2          -3.4748725507       13.1855908686       11.2978034114  CLST          97          1.0000000000
       486        98  DCM   C           -12.6878840432        3.8193464044      -10.1091413085  CLST          98          1.0000000000
       487        98  DCM   H1          -13.5642012961        4.4888355031       -9.9816706531  CLST          98          1.0000000000
       488        98  DCM   H2          -12.0491552910        4.1559137086      -10.9518663465  CLST          98          1.0000000000
       489        98  DCM   CL1         -11.7254622063        3.8322902338       -8.6034590617  CLST          98          1.0000000000
       490        98  DCM   CL2         -13.2617923076        2.1621731891      -10.4489867438  CLST          98          1.0000000000
       491        99  DCM   C            -9.6497651662        9.2299946483       -3.8375074847  CLST          99          1.0000000000
       492        99  DCM   H1           -9.4642312995        9.8910692442       -4.7102195441  CLST          99          1.0000000000
       493        99  DCM   H2          -10.4467180943        8.4895923036       -4.0586185315  CLST          99          1.0000000000
       494        99  DCM   CL1          -8.1409141791        8.3584834557       -3.4405503273  CLST          99          1.0000000000
       495        99  DCM   CL2         -10.1588536041       10.2326165516       -2.4483443143  CLST          99          1.0000000000
       496       100  DCM   C             9.0638670349       -0.3422963097      -10.4903710041  CLST         100          1.0000000000
       497       100  DCM   H1            8.5770675040       -0.2994008562      -11.4882327793  CLST         100          1.0000000000
       498       100  DCM   H2            8.3792540411        0.0295582512       -9.6980983830  CLST         100          1.0000000000
       499       100  DCM   CL1           9.5133227521       -2.0361311818      -10.1363732637  CLST         100          1.0000000000
       500       100  DCM   CL2          10.5298170851        0.6810238270      -10.5161901064  CLST         100          1.0000000000
       501       101  DCM   C            10.1086846229      -10.7862401888       -6.4957676271  CLST         101          1.0000000000
       502       101  DCM   H1            9.3034821109      -10.3063343199       -5.8996425326  CLST         101          1.0000000000
       503       101  DCM   H2           10.1918456528      -11.8676929401       -6.2563986302  CLST         101          1.0000000000
       504       101  DCM   CL1           9.7276820029      -10.6067490249       -8.2325239610  CLST         101          1.0000000000
       505       101  DCM   CL2          11.6659544444       -9.9857940245       -6.1320272535  CLST         101          1.0000000000
       506       102  DCM   C             4.4929441874        1.8468693962       -0.6926588129  CLST         102          1.0000000000
       507       102  DCM   H1            3.6370859018        1.6993178975       -0.0010643021  CLST         102          1.0000000000
       508       102  DCM   H2            4.2140104012        1.5771530180       -1.7319869830  CLST         102          1.0000000000
       509       102  DCM   CL1           4.9875960932        3.5611641663       -0.6546706100  CLST         102          1.0000000000
       510       102  DCM   CL2           5.8519238387        0.8114683182       -0.1708212403  CLST         102          1.0000000000
       511       103  DCM   C            10.8407711941        3.5972049493        9.4073900452  CLST         103          1.0000000000
       512       103  DCM   H1           10.5425908101        2.9084623327        8.5899884218  CLST         103          1.0000000000
       513       103  DCM   H2           10.9810868408        4.6295761240        9.0247781891  CLST         103          1.0000000000
       514       103  DCM   CL1           9.5653497401        3.6054456006       10.6592390707  CLST         103          1.0000000000
       515       103  DCM   CL2          12.3773265356        3.0193115534       10.1125778700  CLST         103          1.0000000000
       516       104  DCM   C            -1.0015717763       11.1556390316        6.0123799822  CLST         104          1.0000000000
       517       104  DCM   H1           -0.8620775341       11.0711985567        4.9138158378  CLST         104          1.0000000000
       518       104  DCM   H2           -1.1781579883       10.1587186281        6.4683857156  CLST         104          1.0000000000
       519       104  DCM   CL1           0.4640995912       11.8731816742        6.7391480997  CLST         104          1.0000000000
       520       104  DCM   CL2          -2.4100360368       12.2065414949        6.3370756510  CLST         104          1.0000000000
       521       105  DCM   C            -8.1220825578        7.4495098528        1.6362714607  CLST         105          1.0000000000
       522       105  DCM   H1           -8.8520573658        7.0686742470        2.3797963626  CLST         105          1.0000000000
       523       105  DCM   H2           -7.4482247728        6.6389253000        1.2865479614  CLST         105          1.0000000000
       524       105  DCM   CL1          -9.0153397676        8.1053818387        0.2363304044  CLST         105          1.0000000000
       525       105  DCM   CL2          -7.1401573677        8.7340273834        2.3945463069  CLST         105          1.0000000000
       526       106  DCM   C            10.5827065409        5.4748124270       -9.5803385880  CLST         106          1.0000000000
       527       106  DCM   H1           10.9652337071        6.1008384631      -10.4143029124  CLST         106          1.0000000000
       528       106  DCM   H2            9.6192053355        4.9967670684       -9.8539973938  CLST         106          1.0000000000
       529       106  DCM   CL1          11.7739418919        4.1929228455       -9.2118101415  CLST         106          1.0000000000
       530       106  DCM   CL2          10.3326222945        6.5058857880       -8.1408514304  CLST         106          1.0000000000
       531       107  DCM   C            -4.9889279113       -3.4662320795        6.8712198115  CLST         107          1.0000000000
       532       107  DCM   H1           -4.3295806955       -2.5793340822        6.9687954504  CLST         107          1.0000000000
       533       107  DCM   H2           -5.9747022051       -3.2738119436        7.3435242817  CLST         107          1.0000000000
       534       107  DCM   CL1          -5.2351541917       -3.8254093757        5.1380979758  CLST         107          1.0000000000
       535       107  DCM   CL2          -4.2074871248       -4.8606347002        7.6721809035  CLST         107          1.0000000000
       536       108  DCM   C             4.6398257216       -3.8115657307       -4.3766961884  CLST         108          1.0000000000
       537       108  DCM   H1            4.7904405698       -4.4100324979       -3.4534333064  CLST         108          1.0000000000
       538       108  DCM   H2            3.5729232926       -3.5307389125       -4.5008417054  CLST         108          1.0000000000
       539       108  DCM   CL1           5.6214463307       -2.3238735697       -4.2691821170  CLST         108          1.0000000000
       540       108  DCM   CL2           5.1576102795       -4.7779112476       -5.7885285993  CLST         108          1.0000000000
       541       109  DCM   C           -12.6420667678        1.4780346713        2.9910728973  CLST         109          1.0000000000
       542       109  DCM   H1          -13.4205801635        1.9665408185        2.3683041367  CLST         109          1.0000000000
       543       109  DCM   H2          -12.9387906100        0.4428370867        3.2591736035  CLST         109          1.0000000000
       544       109  DCM   CL1         -11.1090681973        1.4186260358        2.0758800034  CLST         109          1.0000000000
       545       109  DCM   CL2         -12.4184453757        2.4215584855        4.4908032713  CLST         109          1.0000000000
       546       110  DCM   C            -1.0831703560       13.8175290857       -2.1474688679  CLST         110          1.0000000000
       547       110  DCM   H1           -0.2300531032       13.7281083446       -2.8529931503  CLST         110          1.0000000000
       548       110  DCM   H2           -1.3579203225       14.8802356206       -1.9833382268  CLST         110          1.0000000000
       549       110  DCM   CL1          -2.4956651935       12.9564314304       -2.8200115932  CLST         110          1.0000000000
       550       110  DCM   CL2          -0.6171528735       13.0951726048       -0.5806636286  CLST         110          1.0000000000
       551       111  DCM   C            12.3488900588        0.9449449129        5.1251987992  CLST         111          1.0000000000
       552       111  DCM   H1           12.5925123121        1.3590336464        4.1245719799  CLST         111          1.0000000000
       553       111  DCM   H2           11.3008820093        0.5804553953        5.1648004937  CLST         111          1.0000000000
       554       111  DCM   CL1          13.4559055142       -0.4123578222        5.4762751537  CLST         111          1.0000000000
       555       111  DCM   CL2          12.5629005707        2.2244850396        6.3506383491  CLST         111          1.0000000000
       556       112  DCM   C            -7.9510072228        2.9158397086        1.0414401307  CLST         112          1.0000000000
       557       112  DCM   H1           -7.8652687267        2.6232642343        2.1088441754  CLST         112          1.0000000000
       558       112  DCM   H2           -8.2584383238        2.0507958140        0.4197620935  CLST         112          1.0000000000
       559       112  DCM   CL1          -9.1766685125        4.2067037921        0.8806190412  CLST         112          1.0000000000
       560       112  DCM   CL2          -6.3649578463        3.5082334154        0.4708873125  CLST         112          1.0000000000
       561       113  DCM   C            -5.9328607424       -5.3958544969       11.6887744031  CLST         113          1.0000000000
       562       113  DCM   H1           -6.9252726613       -4.9133133460       11.5635412935  CLST         113          1.0000000000
       563       113  DCM   H2           -5.3118235067       -5.2736828814       10.7753587373  CLST         113          1.0000000000
       564       113  DCM   CL1          -5.0900619808       -4.6438880535       13.0749273132  CLST         113          1.0000000000
       565       113  DCM   CL2          -6.1736155729       -7.1390373986       12.0006066871  CLST         113          1.0000000000
       566       114  DCM   C           -10.5180142699       -8.0030381895       -9.9485532975  CLST         114          1.0000000000
       567       114  DCM   H1          -11.1560848178       -8.5819591306      -10.6493000899  CLST         114          1.0000000000
       568       114  DCM   H2          -10.7382986990       -8.2699741869       -8.8931586695  CLST         114          1.0000000000
       569       114  DCM   CL1          -8.8013560646       -8.3596007522      -10.2981974264  CLST         114          1.0000000000
       570       114  DCM   CL2         -10.8331759355       -6.2601138881      -10.1821097369  CLST         114          1.0000000000
       571       115  DCM   C            -4.6332162063       -4.4857260017       -3.9186584751  CLST         115          1.0000000000
       572       115  DCM   H1           -5.0248234458       -4.4665536344       -4.9566283721  CLST         115          1.0000000000
       573       115  DCM   H2           -3.7691005177       -5.1779205327       -3.8308701509  CLST         115          1.0000000000
       574       115  DCM   CL1          -4.1123675580       -2.8377637624       -3.4692427665  CLST         115          1.0000000000
       575       115  DCM   CL2          -5.9299515959       -5.0247388473       -2.8146942761  CLST         115          1.0000000000
       576       116  DCM   C             3.3627957030       10.0594987696       -1.8509376076  CLST         116          1.0000000000
       577       116  DCM   H1            3.8645931532       10.2940975802       -0.8895645806  CLST         116          1.0000000000
       578       116  DCM   H2            4.0998567426       10.0042903570       -2.6791084302  CLST         116          1.0000000000
       579       116  DCM   CL1           2.5323816756        8.4853924645       -1.7070126665  CLST         116          1.0000000000
       580       116  DCM   CL2           2.1697040849       11.3411717550       -2.2106127635  CLST         116          1.0000000000
       581       117  DCM   C             1.0439217450       -4.9690505344       -0.5705171655  CLST         117          1.0000000000
       582       117  DCM   H1            1.2226683025       -4.9255061010        0.5238993787  CLST         117          1.0000000000
       583       117  DCM   H2            0.3585041190       -4.1572623309       -0.8932248347  CLST         117          1.0000000000
       584       117  DCM   CL1           2.6030260004       -4.8013622599       -1.4218736977  CLST         117          1.0000000000
       585       117  DCM   CL2           0.3137584752       -6.5434622136       -0.9851590680  CLST         117          1.0000000000
       586       118  DCM   C             8.3109834974      -11.2597339813        7.3909824846  CLST         118          1.0000000000
       587       118  DCM   H1            8.6866185956      -11.3788992504        8.4289688195  CLST         118          1.0000000000
       588       118  DCM   H2            9.1517723723      -11.1900004161        6.6682298657  CLST         118          1.0000000000
       589       118  DCM   CL1           7.2981344603      -12.6736734486        6.9786361857  CLST         118          1.0000000000
       590       118  DCM   CL2           7.3371757846       -9.7654506284        7.2993563955  CLST         118          1.0000000000
       591       119  DCM   C            -0.4975757354        4.0511312392       -6.3805910786  CLST         119          1.0000000000
       592       119  DCM   H1           -1.5220306295        3.7094123370       -6.6395842367  CLST         119          1.0000000000
       593       119  DCM   H2           -0.3041284415        5.0688666694       -6.7772736301  CLST         119          1.0000000000
       594       119  DCM   CL1          -0.3264035703        4.0817709343       -4.6035359707  CLST         119          1.0000000000
       595       119  DCM   CL2           0.6936852607        2.9250114576       -7.0907539734  CLST         119          1.0000000000
       596       120  DCM   C            -8.8458013910        9.5493345091       -8.7254674131  CLST         120          1.0000000000
       597       120  DCM   H1           -9.5569639999        8.7040678399       -8.8468801818  CLST         120          1.0000000000
       598       120  DCM   H2           -9.3856353620       10.5157087509       -8.6423767908  CLST         120          1.0000000000
       599       120  DCM   CL1          -7.8881486269        9.2841385281       -7.2403900926  CLST         120          1.0000000000
       600       120  DCM   CL2          -7.7606452825        9.6104219448      -10.1452723037  CLST         120          1.0000000000
       601       121  DCM   C            -9.0838915113        4.2639030113        4.6325652869  CLST         121          1.0000000000
       602       121  DCM   H1           -9.2599025193        3.2579819558        4.1958487417  CLST         121          1.0000000000
       603       121  DCM   H2           -9.0024061285        4.2089555388        5.7386984335  CLST         121          1.0000000000
       604       121  DCM   CL1          -7.5657993696        4.9351329467        3.9741590054  CLST         121          1.0000000000
       605       121  DCM   CL2         -10.4466102414        5.3340009271        4.1987812500  CLST         121          1.0000000000
       606       122  DCM   C            11.2512843479        9.2273259466        4.5312571409  CLST         122          1.0000000000
       607       122  DCM   H1           10.2551299578        9.2390921967        4.0407969544  CLST         122          1.0000000000
       608       122  DCM   H2           11.5523985838       10.2492695422        4.8466525533  CLST         122          1.0000000000
       609       122  DCM   CL1          11.1715669213        8.1782228391        5.9751230544  CLST         122          1.0000000000
       610       122  DCM   CL2          12.4657486792        8.5874526552        3.3832568537  CLST         122          1.0000000000
       611       123  DCM   C             8.2595190330        7.1075172180        8.5630151424  CLST         123          1.0000000000
       612       123  DCM   H1            9.0809778729        7.0949083289        7.8161371213  CLST         123          1.0000000000
       613       123  DCM   H2            8.6552608532        7.2234676330        9.5932917975  CLST         123          1.0000000000
       614       123  DCM   CL1           7.1655551227        8.4730184214        8.2031515686  CLST         123          1.0000000000
       615       123  DCM   CL2           7.3615218841        5.5691206781        8.4607833211  CLST         123          1.0000000000
       616       124  DCM   C            10.5509462365       -1.5075186843       -2.2995964060  CLST         124          1.0000000000
       617       124  DCM   H1           10.9841396898       -2.2311475330       -1.5778225354  CLST         124          1.0000000000
       618       124  DCM   H2           10.9592510004       -1.6722438788       -3.3191103375  CLST         124          1.0000000000
       619       124  DCM   CL1           8.7749935580       -1.7069652224       -2.3390926002  CLST         124          1.0000000000
       620       124  DCM   CL2          10.9599568931        0.1481462867       -1.7714313668  CLST         124          1.0000000000
       621       125  DCM   C            -4.5403348556        2.4756319789        3.9801083383  CLST         125          1.0000000000
       622       125  DCM   H1           -3.7521412214        2.3695590567        4.7553195447  CLST         125          1.0000000000
       623       125  DCM   H2           -4.7350507194        3.5453005851        3.7548427350  CLST         125          1.0000000000
       624       125  DCM   CL1          -4.0039693407        1.6516901259        2.4870881679  CLST         125          1.0000000000
       625       125  DCM   CL2          -6.0476176723        1.7214069261        4.5735392277  CLST         125          1.0000000000
       626       126  DCM   C           -12.2813746742       -8.8425962345        2.6287434196  CLST         126          1.0000000000
       627       126  DCM   H1          -13.3558632113       -8.6126158665        2.4725750048  CLST         126          1.0000000000
       628       126  DCM   H2          -12.1500984067       -9.8304194634        3.1187562375  CLST         126          1.0000000000
       629       126  DCM   CL1         -11.4571224682       -8.8593607375        1.0418546722  CLST         126          1.0000000000
       630       126  DCM   CL2         -11.5669868905       -7.5799722388        3.6716108801  CLST         126          1.0000000000
       631       127  DCM   C            -8.9626735805       -5.5472649102        2.1792505000  CLST         127          1.0000000000
       632       127  DCM   H1           -8.3037335453       -5.2375856511        1.3417707479  CLST         127          1.0000000000
       633       127  DCM   H2           -9.4629804925       -6.5126778555        1.9555981452  CLST         127          1.0000000000
       634       127  DCM   CL1          -7.9794468327       -5.7282675022        3.6593933890  CLST         127          1.0000000000
       635       127  DCM   CL2         -10.2127576526       -4.2968511517        2.4259678390  CLST         127          1.0000000000
       636       128  DCM   C             7.9961281475      -10.1520878533        3.5677019272  CLST         128          1.0000000000
       637       128  DCM   H1            7.7319793189       -9.8151010626        2.5452184599  CLST         128          1.0000000000
       638       128  DCM   H2            7.1806982122       -9.9292180137        4.2857293889  CLST         128          1.0000000000
       639       128  DCM   CL1           8.2907349721      -11.9150339802        3.5409718501  CLST         128          1.0000000000
       640       128  DCM   CL2           9.4728174069       -9.2915039176        4.0798407627  CLST         128          1.0000000000
       641       129  DCM   C            -5.4062136922       -5.7831096591      -11.3414629527  CLST         129          1.0000000000
       642       129  DCM   H1           -4.6487107335       -5.8859758097      -12.1461654579  CLST         129          1.0000000000
       643       129  DCM   H2           -5.2086579317       -4.8824428440      -10.7228386545  CLST         129          1.0000000000
       644       129  DCM   CL1          -7.0240163303       -5.6353128047      -12.0871154199  CLST         129          1.0000000000
       645       129  DCM   CL2          -5.3442781127       -7.2325821583      -10.2968477216  CLST         129          1.0000000000
       646       130  DCM   C            -0.9296914150       -9.4385799935       -2.7847852884  CLST         130          1.0000000000
       647       130  DCM   H1           -0.3363998136       -9.2631574697       -1.8630532275  CLST         130          1.0000000000
       648       130  DCM   H2           -1.2233923229      -10.5060040092       -2.8676199255  CLST         130          1.0000000000
       649       130  DCM   CL1          -2.3990942763       -8.4198931155       -2.7398721340  CLST         130          1.0000000000
       650       130  DCM   CL2           0.0647609431       -8.9986501403       -4.2001883068  CLST         130          1.0000000000
       651       131  DCM   C             0.6067839897       13.5623045989        3.4347257261  CLST         131          1.0000000000
       652       131  DCM   H1            1.3288856541       13.4265381061        4.2673274208  CLST         131          1.0000000000
       653       131  DCM   H2            0.2809621775       12.5836301367        3.0247498746  CLST         131          1.0000000000
       654       131  DCM   CL1          -0.8320132476       14.4267252981        4.0418249595  CLST         131          1.0000000000
       655       131  DCM   CL2           1.3830153159       14.5130445365        2.1348268495  CLST         131          1.0000000000
       656       132  DCM   C             6.3360515175       -7.1992664694        1.2212807774  CLST         132          1.0000000000
       657       132  DCM   H1            6.5259686080       -6.2273910115        1.7240013821  CLST         132          1.0000000000
       658       132  DCM   H2            5.9673053659       -7.9548559526        1.9461710852  CLST         132          1.0000000000
       659       132  DCM   CL1           5.1080636526       -6.9641910786       -0.0510878210  CLST         132          1.0000000000
       660       132  DCM   CL2           7.8496175566       -7.7907747941        0.4812040925  CLST         132          1.0000000000
       661       133  DCM   C             0.2280052066      -13.8078893184       11.4411207108  CLST         133          1.0000000000
       662       133  DCM   H1            1.0927846797      -13.5121924976       12.0719298831  CLST         133          1.0000000000
       663       133  DCM   H2           -0.3889818179      -14.5828541803       11.9440360706  CLST         133          1.0000000000
       664       133  DCM   CL1          -0.7850513624      -12.3691983969       11.1298288108  CLST         133          1.0000000000
       665       133  DCM   CL2           0.8370465613      -14.4685873981        9.8968986390  CLST         133          1.0000000000
       666       134  DCM   C             7.4231340127        7.6729685846       12.4192710164  CLST         134          1.0000000000
       667       134  DCM   H1            6.7432761951        7.1640933175       11.7044670156  CLST         134          1.0000000000
       668       134  DCM   H2            6.9357290555        7.8125396786       13.4069548940  CLST         134          1.0000000000
       669       134  DCM   CL1           8.8852844702        6.6711250878       12.6319498695  CLST         134          1.0000000000
       670       134  DCM   CL2           7.8734429046        9.2724469734       11.7594763767  CLST         134          1.0000000000
       671       135  DCM   C           -11.4744246966        5.2446489304       -4.1998554051  CLST         135          1.0000000000
       672       135  DCM   H1          -10.9276277138        4.8566409843       -3.3155323517  CLST         135          1.0000000000
       673       135  DCM   H2          -12.1335249850        6.0932219021       -3.9192063106  CLST         135          1.0000000000
       674       135  DCM   CL1         -10.2854861285        5.8009020574       -5.4127475166  CLST         135          1.0000000000
       675       135  DCM   CL2         -12.4760249667        3.9328211200       -4.8852373943  CLST         135          1.0000000000
       676       136  DCM   C             7.4687660960        2.2002266935        7.5575678094  CLST         136          1.0000000000
       677       136  DCM   H1            7.6226747542        2.4970005100        8.6162676695  CLST         136          1.0000000000
       678       136  DCM   H2            7.3988699969        3.0919178644        6.9002309655  CLST         136          1.0000000000
       679       136  DCM   CL1           8.8494492087        1.1990385413        7.0273922713  CLST         136          1.0000000000
       680       136  DCM   CL2           5.9525840622        1.2642261415        7.4290475598  CLST         136          1.0000000000
       681       137  DCM   C            -3.5937788229       -3.1540544600       -8.1012999140  CLST         137          1.0000000000
       682       137  DCM   H1           -3.0143140820       -3.2181322547       -9.0476208310  CLST         137          1.0000000000
       683       137  DCM   H2           -4.3352915849       -2.3309704101       -8.1439828000  CLST         137          1.0000000000
       684       137  DCM   CL1          -4.4496514072       -4.6958579590       -7.8375318233  CLST         137          1.0000000000
       685       137  DCM   CL2          -2.4709198622       -2.8546059092       -6.7461210625  CLST         137          1.0000000000
       686       138  DCM   C             4.9968554576       -7.2498512472        5.7220230947  CLST         138          1.0000000000
       687       138  DCM   H1            4.3349979089       -7.8289541521        5.0457896863  CLST         138          1.0000000000
       688       138  DCM   H2            5.1612104330       -7.7962180986        6.6738084009  CLST         138          1.0000000000
       689       138  DCM   CL1           6.5691164562       -6.9866717058        4.9154776013  CLST         138          1.0000000000
       690       138  DCM   CL2           4.2268539231       -5.6781160187        6.0772099080  CLST         138          1.0000000000
       691       139  DCM   C             0.6426789140        2.4119415998        5.4052963699  CLST         139          1.0000000000
       692       139  DCM   H1            1.3819486567        3.0360805007        4.8623587897  CLST         139          1.0000000000
       693       139  DCM   H2            0.2602169359        2.9436235385        6.3007479822  CLST         139          1.0000000000
       694       139  DCM   CL1          -0.7275591032        2.0444601526        4.3191290994  CLST         139          1.0000000000
       695       139  DCM   CL2           1.4337466407        0.8938996770        5.9141824213  CLST         139          1.0000000000
       696       140  DCM   C             9.6763538899       -5.6028138791       -7.9523561769  CLST         140          1.0000000000
       697       140  DCM   H1            9.7342817841       -5.8722824845       -9.0283955856  CLST         140          1.0000000000
       698       140  DCM   H2           10.6095736126       -5.1039521103       -7.6131914280  CLST         140          1.0000000000
       699       140  DCM   CL1           8.2990182084       -4.4908954740       -7.7050538563  CLST         140          1.0000000000
       700       140  DCM   CL2           9.4326938220       -7.0922675981       -6.9945592940  CLST         140          1.0000000000
       701       141  DCM   C            13.8200474211       -5.8238353626       -0.5560113112  CLST         141          1.0000000000
       702       141  DCM   H1           14.0420534147       -4.9142288962       -1.1536801061  CLST         141          1.0000000000
       703       141  DCM   H2           12.7300446914       -5.9308044326       -0.3799075532  CLST         141          1.0000000000
       704       141  DCM   CL1          14.4014049708       -7.2613909260       -1.4431804944  CLST         141          1.0000000000
       705       141  DCM   CL2          14.6512724046       -5.7092342118        1.0217940157  CLST         141          1.0000000000
       706       142  DCM   C            -0.1859133439      -10.9983105433       -8.2104471236  CLST         142          1.0000000000
       707       142  DCM   H1           -0.7067790848      -11.5431497754       -9.0264014572  CLST         142          1.0000000000
       708       142  DCM   H2            0.8908237252      -11.2673839378       -8.1741138376  CLST         142          1.0000000000
       709       142  DCM   CL1          -0.3362492647       -9.2405380729       -8.4986424843  CLST         142          1.0000000000
       710       142  DCM   CL2          -0.9483340456      -11.4246952833       -6.6505327222  CLST         142          1.0000000000
       711       143  DCM   C             8.7509210807       -2.5190745703        9.5609202371  CLST         143          1.0000000000
       712       143  DCM   H1            7.7799285467       -2.7391113394       10.0493265027  CLST         143          1.0000000000
       713       143  DCM   H2            9.1246645934       -1.5156632801        9.8525100045  CLST         143          1.0000000000
       714       143  DCM   CL1           9.9377253697       -3.7527481806       10.0715019235  CLST         143          1.0000000000
       715       143  DCM   CL2           8.5385225199       -2.5717033864        7.7854655010  CLST         143          1.0000000000
       716       144  DCM   C             9.0051399158        7.9920995051        0.0634398143  CLST         144          1.0000000000
       717       144  DCM   H1            8.2064460471        8.7609468102        0.1221520154  CLST         144          1.0000000000
       718       144  DCM   H2            9.9141780240        8.3980481843       -0.4289561370  CLST         144          1.0000000000
       719       144  DCM   CL1           9.4253382593        7.4588049108        1.7149471994  CLST         144          1.0000000000
       720       144  DCM   CL2           8.4045672934        6.6001489795       -0.8797554189  CLST         144          1.0000000000
       721       145  DCM   C             4.2831882514      -11.4832588989        8.7704335915  CLST         145          1.0000000000
       722       145  DCM   H1            5.3868110404      -11.4765603075        8.8792424312  CLST         145          1.0000000000
       723       145  DCM   H2            3.9776671594      -12.1047966204        7.9024830960  CLST         145          1.0000000000
       724       145  DCM   CL1           3.5570108812      -12.1552520491       10.2582012925  CLST         145          1.0000000000
       725       145  DCM   CL2           3.7163890704       -9.8063822780        8.5239804966  CLST         145          1.0000000000
       726       146  DCM   C             0.6093608736       -6.4032808436        9.6053076350  CLST         146          1.0000000000
       727       146  DCM   H1            0.1363749899       -7.1969496317        8.9885373318  CLST         146          1.0000000000
       728       146  DCM   H2            0.4264127978       -6.5750908513       10.6858683638  CLST         146          1.0000000000
       729       146  DCM   CL1           2.3700541157       -6.4001777157        9.3115554688  CLST         146          1.0000000000
       730       146  DCM   CL2          -0.0783265704       -4.8190744241        9.1525450962  CLST         146          1.0000000000
       731       147  DCM   C            -5.4261159729      -10.5502176721       -8.2545080929  CLST         147          1.0000000000
       732       147  DCM   H1           -6.0321779388       -9.6635668008       -8.5374394746  CLST         147          1.0000000000
       733       147  DCM   H2           -5.2511615221      -10.5814488100       -7.1584443294  CLST         147          1.0000000000
       734       147  DCM   CL1          -6.3024203184      -12.0299532285       -8.7394655350  CLST         147          1.0000000000
       735       147  DCM   CL2          -3.8503143607      -10.4757120965       -9.0963885806  CLST         147          1.0000000000
       736       148  DCM   C             2.1705594891      -12.2852833695       -4.8352743150  CLST         148          1.0000000000
       737       148  DCM   H1            1.1337148742      -12.1623503669       -4.4568022036  CLST         148          1.0000000000
       738       148  DCM   H2            2.1821303043      -12.4030781883       -5.9393567227  CLST         148          1.0000000000
       739       148  DCM   CL1           3.1249779408      -10.8431776370       -4.3914194033  CLST         148          1.0000000000
       740       148  DCM   CL2           2.8916345714      -13.7377292875       -4.0859255354  CLST         148          1.0000000000
       741       149  DCM   C             5.0299307783        7.0346183044        0.7741341311  CLST         149          1.0000000000
       742       149  DCM   H1            4.4447020726        6.4363380190        0.0439880407  CLST         149          1.0000000000
       743       149  DCM   H2            5.7038643620        7.7458149823        0.2512964314  CLST         149          1.0000000000
       744       149  DCM   CL1           3.8984479900        7.9514064141        1.8090892218  CLST         149          1.0000000000
       745       149  DCM   CL2           6.0103097102        5.9324115715        1.7846101907  CLST         149          1.0000000000
       746       150  DCM   C            -8.8547682566        0.6396719312       -9.7775846320  CLST         150          1.0000000000
       747       150  DCM   H1           -8.2729038719        0.7253885449      -10.7191981641  CLST         150          1.0000000000
       748       150  DCM   H2           -9.9413217791        0.5434741103       -9.9856154980  CLST         150          1.0000000000
       749       150  DCM   CL1          -8.3005626727       -0.8020871689       -8.8826592279  CLST         150          1.0000000000
       750       150  DCM   CL2          -8.5826689801        2.1010425231       -8.7881720952  CLST         150          1.0000000000
       751       151  DCM   C             0.4111984816       -4.2064422602       -4.7814232552  CLST         151          1.0000000000
       752       151  DCM   H1           -0.0536538640       -4.0628935232       -5.7787171916  CLST         151          1.0000000000
       753       151  DCM   H2            1.0364407598       -3.3326467558       -4.5030042501  CLST         151          1.0000000000
       754       151  DCM   CL1          -0.8775094206       -4.4135477787       -3.5661309193  CLST         151          1.0000000000
       755       151  DCM   CL2           1.4311683034       -5.6699134063       -4.8291051558  CLST         151          1.0000000000
       756       152  DCM   C             8.4548193271        3.4123682398       -6.6102325120  CLST         152          1.0000000000
       757       152  DCM   H1            8.0558281688        4.4482735299       -6.6113585372  CLST         152          1.0000000000
       758       152  DCM   H2            7.8279105534        2.7423046541       -5.9857081622  CLST         152          1.0000000000
       759       152  DCM   CL1           8.4681928825        2.7924569826       -8.2861785698  CLST         152          1.0000000000
       760       152  DCM   CL2          10.1167485578        3.4325617465       -5.9532684260  CLST         152          1.0000000000
       761       153  DCM   C            10.0577567318        6.5724762688       -4.2440714494  CLST         153          1.0000000000
       762       153  DCM   H1           10.0458889343        5.7116762334       -3.5434086710  CLST         153          1.0000000000
       763       153  DCM   H2           10.7084206466        6.3631725253       -5.1194054975  CLST         153          1.0000000000
       764       153  DCM   CL1           8.3905823824        6.8765595094       -4.8140759004  CLST         153          1.0000000000
       765       153  DCM   CL2          10.6806485914        8.0105074988       -3.3844435933  CLST         153          1.0000000000
       766       154  DCM   C             5.6950284456       -8.3573966017       -3.4947681843  CLST         154          1.0000000000
       767       154  DCM   H1            5.4380469573       -9.4018275523       -3.2231125479  CLST         154          1.0000000000
       768       154  DCM   H2            6.4086234477       -7.9209229352       -2.7647412464  CLST         154          1.0000000000
       769       154  DCM   CL1           6.4314949746       -8.3399154890       -5.1238666655  CLST         154          1.0000000000
       770       154  DCM   CL2           4.1989694064       -7.3855127353       -3.4954901917  CLST         154          1.0000000000
       771       155  DCM   C           -12.4871127351        2.8870042273        8.5514167461  CLST         155          1.0000000000
       772       155  DCM   H1          -12.3083193848        2.9637135774        9.6448146681  CLST         155          1.0000000000
       773       155  DCM   H2          -13.5070416407        3.2330992776        8.2872411232  CLST         155          1.0000000000
       774       155  DCM   CL1         -11.2949172840        3.9007893260        7.6909334050  CLST         155          1.0000000000
       775       155  DCM   CL2         -12.3128540725        1.1826425233        8.0463669072  CLST         155          1.0000000000
       776       156  DCM   C            -3.8879786209       -1.2615962164       -0.1723500228  CLST         156          1.0000000000
       777       156  DCM   H1           -4.0469775387       -0.9662481619        0.8846889112  CLST         156          1.0000000000
       778       156  DCM   H2           -4.3237590803       -2.2628809992       -0.3780411406  CLST         156          1.0000000000
       779       156  DCM   CL1          -4.6785324921       -0.0576774529       -1.2333890496  CLST         156          1.0000000000
       780       156  DCM   CL2          -2.1298812622       -1.3238437142       -0.4993457476  CLST         156          1.0000000000
       781       157  DCM   C            12.9715436397        6.7891249526       10.7745252119  CLST         157          1.0000000000
       782       157  DCM   H1           13.4875687166        6.0417677147       10.1349024423  CLST         157          1.0000000000
       783       157  DCM   H2           13.6482504220        7.6305416108       11.0313133348  CLST         157          1.0000000000
       784       157  DCM   CL1          11.5560727823        7.4338203693        9.8934658520  CLST         157          1.0000000000
       785       157  DCM   CL2          12.4374644842        5.9908734921       12.2824411568  CLST         157          1.0000000000
       786       158  DCM   C             8.7420503322       12.8926161259       -0.3790091705  CLST         158          1.0000000000
       787       158  DCM   H1            8.8125215023       13.8875912055        0.1105735266  CLST         158          1.0000000000
       788       158  DCM   H2            7.6848099928       12.6214924775       -0.5802281497  CLST         158          1.0000000000
       789       158  DCM   CL1           9.6290691869       12.9408808635       -1.9300229879  CLST         158          1.0000000000
       790       158  DCM   CL2           9.4650849599       11.6585608924        0.6954491166  CLST         158          1.0000000000
       791       159  DCM   C             0.6435822652       -6.2651910133        5.8295573491  CLST         159          1.0000000000
       792       159  DCM   H1            1.0767550278       -5.5299384882        6.5390602055  CLST         159          1.0000000000
       793       159  DCM   H2            0.7721497976       -5.9253828059        4.7814986279  CLST         159          1.0000000000
       794       159  DCM   CL1           1.4744885169       -7.8320749944        6.0454562377  CLST         159          1.0000000000
       795       159  DCM   CL2          -1.0998986564       -6.4528253757        6.1717256141  CLST         159          1.0000000000
       796       160  DCM   C            -5.6126406534      -12.4325427318        2.6117052752  CLST         160          1.0000000000
       797       160  DCM   H1           -6.7125129729      -12.5844835460        2.6421974311  CLST         160          1.0000000000
       798       160  DCM   H2           -5.3552285336      -11.3570353689        2.7086012306  CLST         160          1.0000000000
       799       160  DCM   CL1          -4.8631997095      -13.3237079648        3.9661836089  CLST         160          1.0000000000
       800       160  DCM   CL2          -4.9826984934      -13.0497272527        1.0556928224  CLST         160          1.0000000000
       801       161  DCM   C            -3.6583067907        2.8458481029      -12.1640882185  CLST         161          1.0000000000
       802       161  DCM   H1           -3.5140756273        3.4775424537      -13.0654018209  CLST         161          1.0000000000
       803       161  DCM   H2           -3.4036710579        3.4063648181      -11.2400729763  CLST         161          1.0000000000
       804       161  DCM   CL1          -5.3649769061        2.3255049290      -12.0733397904  CLST         161          1.0000000000
       805       161  DCM   CL2          -2.6010385362        1.4122734331      -12.2863380067  CLST         161          1.0000000000
       806       162  DCM   C             8.1592662973        2.0813993617       -2.8853070219  CLST         162          1.0000000000
       807       162  DCM   H1            8.2720948635        1.7786042895       -1.8236167280  CLST         162          1.0000000000
       808       162  DCM   H2            9.0959477971        1.8967652279       -3.4524572831  CLST         162          1.0000000000
       809       162  DCM   CL1           6.8295754665        1.1444499785       -3.6193908054  CLST         162          1.0000000000
       810       162  DCM   CL2           7.7703638106        3.8200331409       -2.9609406879  CLST         162          1.0000000000
       811       163  DCM   C           -13.2431124847        2.7644680304       -1.1792902766  CLST         163          1.0000000000
       812       163  DCM   H1          -13.6455328442        3.7764057049       -1.3971872145  CLST         163          1.0000000000
       813       163  DCM   H2          -13.4800484235        2.4529172696       -0.1405477418  CLST         163          1.0000000000
       814       163  DCM   CL1         -13.9708402156        1.5958291088       -2.3143682786  CLST         163          1.0000000000
       815       163  DCM   CL2         -11.4700637962        2.7842935851       -1.3916039599  CLST         163          1.0000000000
       816       164  DCM   C             3.5920744781        0.5754408242       -4.6836485603  CLST         164          1.0000000000
       817       164  DCM   H1            4.0026652057        0.1622439793       -3.7402002043  CLST         164          1.0000000000
       818       164  DCM   H2            4.3910281594        0.6781887941       -5.4471488932  CLST         164          1.0000000000
       819       164  DCM   CL1           2.3340372405       -0.5306549305       -5.3002980126  CLST         164          1.0000000000
       820       164  DCM   CL2           2.8835953307        2.1804153401       -4.3481443474  CLST         164          1.0000000000
       821       165  DCM   C            13.8257735988       -2.2385478014        1.1715544038  CLST         165          1.0000000000
       822       165  DCM   H1           12.8174428399       -2.6941308832        1.2661534521  CLST         165          1.0000000000
       823       165  DCM   H2           14.4144860140       -2.7328250273        0.3707628754  CLST         165          1.0000000000
       824       165  DCM   CL1          13.6512251493       -0.5056286732        0.7731506797  CLST         165          1.0000000000
       825       165  DCM   CL2          14.6962384819       -2.4203134346        2.7217376981  CLST         165          1.0000000000
       826       166  DCM   C             6.8130862267       11.2806096258       -3.7025226817  CLST         166          1.0000000000
       827       166  DCM   H1            6.2501025772       10.8638901379       -4.5641793341  CLST         166          1.0000000000
       828       166  DCM   H2            7.7559052678       11.7592268145       -4.0414455937  CLST         166          1.0000000000
       829       166  DCM   CL1           5.8084671722       12.5099992493       -2.8811963943  CLST         166          1.0000000000
       830       166  DCM   CL2           7.2026939827        9.9559385417       -2.5668188416  CLST         166          1.0000000000
       831       167  DCM   C            10.4631806170       -5.1475674850      -13.0248155579  CLST         167          1.0000000000
       832       167  DCM   H1           10.1132199867       -4.5658296861      -12.1459223179  CLST         167          1.0000000000
       833       167  DCM   H2           11.4832246771       -5.5524425309      -12.8578833113  CLST         167          1.0000000000
       834       167  DCM   CL1           9.3376770935       -6.5073720678      -13.3112940072  CLST         167          1.0000000000
       835       167  DCM   CL2          10.4925037460       -4.0731447488      -14.4532506597  CLST         167          1.0000000000
       836       168  DCM   C            -7.7116128909       -8.0888582103       -3.6096311058  CLST         168          1.0000000000
       837       168  DCM   H1           -7.8971027885       -7.0330111508       -3.3272649318  CLST         168          1.0000000000
       838       168  DCM   H2           -7.5621570001       -8.1837698976       -4.7043970240  CLST         168          1.0000000000
       839       168  DCM   CL1          -6.2416864286       -8.6698553797       -2.7790909874  CLST         168          1.0000000000
       840       168  DCM   CL2          -9.1183728426       -9.0732683897       -3.1174016481  CLST         168          1.0000000000
       841       169  DCM   C            -1.9722489761       -1.7164573235       10.0336332438  CLST         169          1.0000000000
       842       169  DCM   H1           -1.1653703319       -2.0644645074        9.3567611251  CLST         169          1.0000000000
       843       169  DCM   H2           -2.6914538625       -1.0600603382        9.5001309146  CLST         169          1.0000000000
       844       169  DCM   CL1          -2.8513477211       -3.1359214240       10.6694648238  CLST         169          1.0000000000
       845       169  DCM   CL2          -1.2347257569       -0.8063466326       11.3816163947  CLST         169          1.0000000000
       846       170  DCM   C            -6.9090207483       -2.2485420544        1.6970610860  CLST         170          1.0000000000
       847       170  DCM   H1           -7.6437638439       -2.7193277484        2.3831217464  CLST         170          1.0000000000
       848       170  DCM   H2           -5.8730549693       -2.5538248643        1.9564390950  CLST         170          1.0000000000
       849       170  DCM   CL1          -7.2675815975       -2.7546944538        0.0213240340  CLST         170          1.0000000000
       850       170  DCM   CL2          -7.0453268456       -0.4721567145        1.8272116214  CLST         170          1.0000000000
       851       171  DCM   C             6.6195513612        8.5518155774        4.1585511146  CLST         171          1.0000000000
       852       171  DCM   H1            6.7111803737        8.5264337681        3.0529498351  CLST         171          1.0000000000
       853       171  DCM   H2            5.5846857295        8.3077173656        4.4786293396  CLST         171          1.0000000000
       854       171  DCM   CL1           7.7415810098        7.3518774753        4.8601033445  CLST         171          1.0000000000
       855       171  DCM   CL2           7.0415343803       10.1894393413        4.7331895675  CLST         171          1.0000000000
       856       172  DCM   C            -7.0870066256        6.2106398732       -9.4476496014  CLST         172          1.0000000000
       857       172  DCM   H1           -7.4264820356        6.4860688890      -10.4684605755  CLST         172          1.0000000000
       858       172  DCM   H2           -6.5942323098        7.0682913178       -8.9447154336  CLST         172          1.0000000000
       859       172  DCM   CL1          -8.4979835980        5.7142843999       -8.4751557538  CLST         172          1.0000000000
       860       172  DCM   CL2          -5.9280286316        4.8575328429       -9.5589868342  CLST         172          1.0000000000
       861       173  DCM   C             4.7480407558        2.9638089911       11.6287729133  CLST         173          1.0000000000
       862       173  DCM   H1            4.8231430204        2.5209637907       10.6139506704  CLST         173          1.0000000000
       863       173  DCM   H2            4.8382439459        2.1840079994       12.4147513577  CLST         173          1.0000000000
       864       173  DCM   CL1           6.0713949980        4.1481462265       11.8280991013  CLST         173          1.0000000000
       865       173  DCM   CL2           3.1626283808        3.7741533761       11.7916285742  CLST         173          1.0000000000
       866       174  DCM   C             3.8547705467      -12.2160766908        4.1414754450  CLST         174          1.0000000000
       867       174  DCM   H1            4.1258008679      -12.0619568699        3.0770472982  CLST         174          1.0000000000
       868       174  DCM   H2            2.7538023859      -12.1761632152        4.2766198999  CLST         174          1.0000000000
       869       174  DCM   CL1           4.4523376153      -13.8162930438        4.6660515829  CLST         174          1.0000000000
       870       174  DCM   CL2           4.6023253827      -10.9327504943        5.1328947757  CLST         174          1.0000000000
       871       175  DCM   C             8.3186697658       -5.0266008463       -4.0938741660  CLST         175          1.0000000000
       872       175  DCM   H1            8.1074493103       -5.9262937292       -4.7074701540  CLST         175          1.0000000000
       873       175  DCM   H2            7.8308154081       -4.1292656096       -4.5255996187  CLST         175          1.0000000000
       874       175  DCM   CL1           7.6926427423       -5.2940128726       -2.4424888823  CLST         175          1.0000000000
       875       175  DCM   CL2          10.0823184999       -4.7474602720       -4.0452709758  CLST         175          1.0000000000
       876       176  DCM   C            -7.7222821645      -12.0837344427       -1.6077296759  CLST         176          1.0000000000
       877       176  DCM   H1           -6.9128376462      -11.3283145291       -1.5271692011  CLST         176          1.0000000000
       878       176  DCM   H2           -8.5276929176      -11.7415431798       -2.2893982247  CLST         176          1.0000000000
       879       176  DCM   CL1          -7.0369102941      -13.5978331397       -2.2585529631  CLST         176          1.0000000000
       880       176  DCM   CL2          -8.4179401938      -12.3710277228        0.0132988350  CLST         176          1.0000000000
       881       177  DCM   C             2.3073885006       -2.6725585007        7.0932741640  CLST         177          1.0000000000
       882       177  DCM   H1            2.5057565079       -3.6740259760        7.5318440454  CLST         177          1.0000000000
       883       177  DCM   H2            1.4138855501       -2.2054806649        7.5586575848  CLST         177          1.0000000000
       884       177  DCM   CL1           3.7233581003       -1.6257207095        7.3884539707  CLST         177          1.0000000000
       885       177  DCM   CL2           2.0353142941       -2.8390030783        5.3333168725  CLST         177          1.0000000000
       886       178  DCM   C            -4.2678676874        1.7003860088        8.0785835640  CLST         178          1.0000000000
       887       178  DCM   H1           -4.4953965923        2.0211701997        9.1171186322  CLST         178          1.0000000000
       888       178  DCM   H2           -4.5915205750        2.4688813088        7.3444901724  CLST         178          1.0000000000
       889       178  DCM   CL1          -2.5069449012        1.4465277741        7.9228347365  CLST         178          1.0000000000
       890       178  DCM   CL2          -5.1291711668        0.1724317248        7.7414730655  CLST         178          1.0000000000
       891       179  DCM   C           -11.6029314230       -2.7870961182      -11.6318781037  CLST         179          1.0000000000
       892       179  DCM   H1          -11.8733883666       -2.7645088696      -12.7087794869  CLST         179          1.0000000000
       893       179  DCM   H2          -12.0950078518       -3.6362492029      -11.1121696856  CLST         179          1.0000000000
       894       179  DCM   CL1          -9.8310300497       -2.9584130322      -11.4808744953  CLST         179          1.0000000000
       895       179  DCM   CL2         -12.1281144391       -1.2603679861      -10.8678187850  CLST         179          1.0000000000
       896       180  DCM   C            -2.4431441960      -10.3190039343        0.7764804251  CLST         180          1.0000000000
       897       180  DCM   H1           -3.1739255679      -10.2829709972        1.6114344119  CLST         180          1.0000000000
       898       180  DCM   H2           -2.9537730377      -10.2225170563       -0.2039742664  CLST         180          1.0000000000
       899       180  DCM   CL1          -1.2776371682       -8.9802111789        0.9635724163  CLST         180          1.0000000000
       900       180  DCM   CL2          -1.5812338558      -11.8799877683        0.8340812577  CLST         180          1.0000000000
       901       181  DCM   C             2.5972702199        4.6480984586        2.3041999276  CLST         181          1.0000000000
       902       181  DCM   H1            2.6701860888        5.2387453988        1.3676903018  CLST         181          1.0000000000
       903       181  DCM   H2            3.6000089084        4.4687133826        2.7428018212  CLST         181          1.0000000000
       904       181  DCM   CL1           1.6121141674        5.5544195379        3.4871405261  CLST         181          1.0000000000
       905       181  DCM   CL2           1.8270965465        3.0794588616        1.9335174438  CLST         181          1.0000000000
       906       182  DCM   C             4.1965133174        5.6935356512      -13.4522682692  CLST         182          1.0000000000
       907       182  DCM   H1            4.6623090734        6.4356117418      -12.7722204998  CLST         182          1.0000000000
       908       182  DCM   H2            4.5588100758        5.8248552422      -14.4928491695  CLST         182          1.0000000000
       909       182  DCM   CL1           4.6179008647        4.0500074830      -12.8954238610  CLST         182          1.0000000000
       910       182  DCM   CL2           2.4227513754        5.9092258310      -13.4243656071  CLST         182          1.0000000000
       911       183  DCM   C            -0.2836877647       11.4967033583       -5.3860301328  CLST         183          1.0000000000
       912       183  DCM   H1            0.4445588417       10.7927849104       -5.8391813893  CLST         183          1.0000000000
       913       183  DCM   H2           -0.2318575216       11.4644291178       -4.2770449541  CLST         183          1.0000000000
       914       183  DCM   CL1           0.0834318387       13.1537574393       -5.9440285440  CLST         183          1.0000000000
       915       183  DCM   CL2          -1.9291179531       11.0406818423       -5.9091158500  CLST         183          1.0000000000
       916       184  DCM   C             5.7055190831        2.2586915843        3.0946568122  CLST         184          1.0000000000
       917       184  DCM   H1            5.3393652543        2.9476806856        2.3055135491  CLST         184          1.0000000000
       918       184  DCM   H2            6.1161232499        1.3291454653        2.6497583325  CLST         184          1.0000000000
       919       184  DCM   CL1           6.9905041623        3.0707463954        4.0291288548  CLST         184          1.0000000000
       920       184  DCM   CL2           4.3563392781        1.8304755917        4.1808650830  CLST         184          1.0000000000
       921       185  DCM   C             6.3898943712      -12.2556541844       -5.0267831642  CLST         185          1.0000000000
       922       185  DCM   H1            6.1303401635      -11.3952919145       -4.3763534470  CLST         185          1.0000000000
       923       185  DCM   H2            5.6145159800      -13.0480407622       -4.9683632632  CLST         185          1.0000000000
       924       185  DCM   CL1           6.5140998038      -11.6817817462       -6.7148231928  CLST         185          1.0000000000
       925       185  DCM   CL2           7.9527425638      -12.9358901779       -4.4894531655  CLST         185          1.0000000000
       926       186  DCM   C            -7.0684801289       11.2745397183       -0.7610138736  CLST         186          1.0000000000
       927       186  DCM   H1           -7.1225231689       10.1756656807       -0.6183046778  CLST         186          1.0000000000
       928       186  DCM   H2           -7.6071724217       11.5833733151       -1.6809355316  CLST         186          1.0000000000
       929       186  DCM   CL1          -7.8104492458       12.0859441146        0.6476778483  CLST         186          1.0000000000
       930       186  DCM   CL2          -5.3567959502       11.7602227944       -0.9059241563  CLST         186          1.0000000000
       931       187  DCM   C            -3.2275656849       -8.6775783761        9.8750969102  CLST         187          1.0000000000
       932       187  DCM   H1           -4.2903189850       -8.8786381425       10.1287651506  CLST         187          1.0000000000
       933       187  DCM   H2           -2.5569952824       -9.4375200701       10.3298259969  CLST         187          1.0000000000
       934       187  DCM   CL1          -3.0382206880       -8.7257674299        8.0990040223  CLST         187          1.0000000000
       935       187  DCM   CL2          -2.7775354859       -7.0588965425       10.4872985329  CLST         187          1.0000000000
       936       188  DCM   C             5.1931489279       12.5999509074       -8.3655816163  CLST         188          1.0000000000
       937       188  DCM   H1            5.4769547594       13.3504876880       -9.1327250169  CLST         188          1.0000000000
       938       188  DCM   H2            4.1369874397       12.7304425245       -8.0482734572  CLST         188          1.0000000000
       939       188  DCM   CL1           5.3977887701       10.9607757378       -9.0509131089  CLST         188          1.0000000000
       940       188  DCM   CL2           6.2518259659       12.7987530042       -6.9399445025  CLST         188          1.0000000000
       941       189  DCM   C             5.9977057507       -1.5515477774        4.3191719447  CLST         189          1.0000000000
       942       189  DCM   H1            5.2880637699       -1.1729311261        5.0824597326  CLST         189          1.0000000000
       943       189  DCM   H2            5.5560481280       -1.4836339010        3.3017358178  CLST         189          1.0000000000
       944       189  DCM   CL1           7.4863157374       -0.5693512119        4.3757066901  CLST         189          1.0000000000
       945       189  DCM   CL2           6.3940338549       -3.2572028814        4.6711745347  CLST         189          1.0000000000
       946       190  DCM   C            -3.0987339791       -7.9232565520       -6.7161523592  CLST         190          1.0000000000
       947       190  DCM   H1           -2.6520510252       -8.9134633243       -6.4868295162  CLST         190          1.0000000000
       948       190  DCM   H2           -3.2339869948       -7.7883939829       -7.8103071656  CLST         190          1.0000000000
       949       190  DCM   CL1          -4.6896230973       -7.7994328685       -5.9108849512  CLST         190          1.0000000000
       950       190  DCM   CL2          -2.0066756858       -6.6456777096       -6.1132888290  CLST         190          1.0000000000
       951       191  DCM   C            -5.3250310432       11.3190672939       -4.9637240817  CLST         191          1.0000000000
       952       191  DCM   H1           -5.2247907730       11.0972754647       -6.0470595136  CLST         191          1.0000000000
       953       191  DCM   H2           -4.6618887467       12.1583576161       -4.6657735204  CLST         191          1.0000000000
       954       191  DCM   CL1          -7.0188149227       11.7696742229       -4.6167231488  CLST         191          1.0000000000
       955       191  DCM   CL2          -4.8766011139        9.8616251883       -4.0300935361  CLST         191          1.0000000000
       956       192  DCM   C            -4.8552872865      -12.0705968191        7.3618093150  CLST         192          1.0000000000
       957       192  DCM   H1           -4.4929295832      -11.5008812995        6.4810715292  CLST         192          1.0000000000
       958       192  DCM   H2           -5.2389455115      -13.0688071036        7.0609817233  CLST         192          1.0000000000
       959       192  DCM   CL1          -3.5025779448      -12.2866978699        8.5079431371  CLST         192          1.0000000000
       960       192  DCM   CL2          -6.1702409556      -11.1488476510        8.1462707813  CLST         192          1.0000000000
       961       193  DCM   C             6.7752982536       -9.9266500739       11.2279017754  CLST         193          1.0000000000
       962       193  DCM   H1            7.1274445853       -9.4859670294       10.2716358283  CLST         193          1.0000000000
       963       193  DCM   H2            5.6780942992       -9.7946609881       11.3483397014  CLST         193          1.0000000000
       964       193  DCM   CL1           7.1588650289      -11.6711215916       11.2306037213  CLST         193          1.0000000000
       965       193  DCM   CL2           7.6176313993       -9.1195893314       12.5813888701  CLST         193          1.0000000000
       966       194  DCM   C           -12.3052105649       -4.5297900586        5.6150979671  CLST         194          1.0000000000
       967       194  DCM   H1          -12.4740947041       -4.8094716827        4.5534302970  CLST         194          1.0000000000
       968       194  DCM   H2          -12.6921262869       -3.5096189672        5.8238277169  CLST         194          1.0000000000
       969       194  DCM   CL1         -13.1506873792       -5.6978241445        6.6667862972  CLST         194          1.0000000000
       970       194  DCM   CL2         -10.5532994822       -4.5803501833        5.9646645685  CLST         194          1.0000000000
       971       195  DCM   C            10.1611352089        4.4084820214        4.1728504524  CLST         195          1.0000000000
       972       195  DCM   H1            9.9636065100        3.3357320551        3.9672152372  CLST         195          1.0000000000
       973       195  DCM   H2            9.4411819084        5.0571879054        3.6299568218  CLST         195          1.0000000000
       974       195  DCM   CL1           9.9935818426        4.6950884674        5.9295465942  CLST         195          1.0000000000
       975       195  DCM   CL2          11.8208675999        4.8032084069        3.6404157749  CLST         195          1.0000000000
       976       196  DCM   C            -1.1605801954        0.3975774630       -5.1335063277  CLST         196          1.0000000000
       977       196  DCM   H1           -0.3464798378        1.1228825111       -4.9254072316  CLST         196          1.0000000000
       978       196  DCM   H2           -1.0702489740       -0.0234614536       -6.1575198667  CLST         196          1.0000000000
       979       196  DCM   CL1          -1.0611548097       -0.9280009411       -3.9459263613  CLST         196          1.0000000000
       980       196  DCM   CL2          -2.7364038390        1.2197020919       -4.9713466364  CLST         196          1.0000000000
       981       197  DCM   C            -1.2195853724        6.0749896869        7.3288910498  CLST         197          1.0000000000
       982       197  DCM   H1           -1.9324309114        6.7086560230        7.8971558575  CLST         197          1.0000000000
       983       197  DCM   H2           -0.4458411997        5.6505612921        8.0010753115  CLST         197          1.0000000000
       984       197  DCM   CL1          -2.1149362002        4.7397335947        6.5487628799  CLST         197          1.0000000000
       985       197  DCM   CL2          -0.4155194486        7.0701123001        6.0817735965  CLST         197          1.0000000000
       986       198  DCM   C             0.3322075190        8.2170543073       10.5399736746  CLST         198          1.0000000000
       987       198  DCM   H1           -0.7671196918        8.2820732983       10.6786044422  CLST         198          1.0000000000
       988       198  DCM   H2            0.8677718371        8.8040900235       11.3153849208  CLST         198          1.0000000000
       989       198  DCM   CL1           0.8319212077        6.5062025041       10.6559122522  CLST         198          1.0000000000
       990       198  DCM   CL2           0.7531408123        8.8627814097        8.9279065067  CLST         198          1.0000000000
       991       199  DCM   C           -10.1891263985       -1.7785639938        8.7341901183  CLST         199          1.0000000000
       992       199  DCM   H1           -9.4354619811       -2.5183195322        8.3945506583  CLST         199          1.0000000000
       993       199  DCM   H2          -10.1646418247       -0.8706860472        8.0971158464  CLST         199          1.0000000000
       994       199  DCM   CL1         -11.8128917994       -2.5100936889        8.6266844245  CLST         199          1.0000000000
       995       199  DCM   CL2          -9.8491446410       -1.3198008873       10.4277249771  CLST         199          1.0000000000
       996       200  DCM   C             2.0243800651      -10.8866331509       -0.1342085384  CLST         200          1.0000000000
       997       200  DCM   H1            1.2587362712      -10.5834045401        0.6106975446  CLST         200          1.0000000000
       998       200  DCM   H2            2.8676899838      -11.4159013032        0.3573042494  CLST         200          1.0000000000
       999       200  DCM   CL1           1.2791639935      -11.9813716675       -1.3284259891  CLST         200          1.0000000000
      1000       200  DCM   CL2           2.6475707401       -9.4362768500       -0.9685393985  CLST         200          1.0000000000
      1001       201  DCM   C           -10.4089979201       10.5301020315        2.9211863774  CLST         201          1.0000000000
      1002       201  DCM   H1           -9.8687482272       10.3948545130        1.9608340783  CLST         201          1.0000000000
      1003       201  DCM   H2          -11.2259974730       11.2749734279        2.8174643026  CLST         201          1.0000000000
      1004       201  DCM   CL1         -11.1063806358        8.9615552085        3.4220874777  CLST         201          1.0000000000
      1005       201  DCM   CL2          -9.2538243878       11.1059335528        4.1580538779  CLST         201          1.0000000000
      1006       202  DCM   C             4.4848195658       -1.2387406930      -12.5218536572  CLST         202          1.0000000000
      1007       202  DCM   H1            4.5972398023       -2.0237751397      -13.2998996582  CLST         202          1.0000000000
      1008       202  DCM   H2            5.1633371813       -1.4259346474      -11.6640161309  CLST         202          1.0000000000
      1009       202  DCM   CL1           4.8847764905        0.3510835627      -13.2343813667  CLST         202          1.0000000000
      1010       202  DCM   CL2           2.7969331974       -1.2419638807      -11.9358883185  CLST         202          1.0000000000
      1011       203  DCM   C           -13.7425118637        6.1038830504        5.8776103780  CLST         203          1.0000000000
      1012       203  DCM   H1          -14.3561438635        6.5165642329        5.0499818205  CLST         203          1.0000000000
      1013       203  DCM   H2          -13.1493445889        5.2295257253        5.5366925336  CLST         203          1.0000000000
      1014       203  DCM   CL1         -12.6324458225        7.3752759955        6.4643382105  CLST         203          1.0000000000
      1015       203  DCM   CL2         -14.8238748334        5.5907461482        7.2035708155  CLST         203          1.0000000000
      1016       204  DCM   C            -5.0852375939        7.6297040029      -13.6955576111  CLST         204          1.0000000000
      1017       204  DCM   H1           -4.8220686024        7.3485708257      -14.7366724107  CLST         204          1.0000000000
      1018       204  DCM   H2           -4.3758569115        8.3834521482      -13.2945254552  CLST         204          1.0000000000
      1019       204  DCM   CL1          -6.7394775919        8.3070835476      -13.6756340914  CLST         204          1.0000000000
      1020       204  DCM   CL2          -5.0220337657        6.1673120182      -12.6726139909  CLST         204          1.0000000000
      1021       205  DCM   C             5.6674500989       12.1826299793        1.9823197961  CLST         205          1.0000000000
      1022       205  DCM   H1            6.5920351152       12.5031511983        2.5072226317  CLST         205          1.0000000000
      1023       205  DCM   H2            4.8601713489       11.9486735030        2.7071231150  CLST         205          1.0000000000
      1024       205  DCM   CL1           5.1146382543       13.5016463934        0.9097361109  CLST         205          1.0000000000
      1025       205  DCM   CL2           6.0190203382       10.7207157098        1.0155830884  CLST         205          1.0000000000
      1026       206  DCM   C           -10.4436802972        7.9983598567      -12.1833663300  CLST         206          1.0000000000
      1027       206  DCM   H1          -10.8873884454        7.6065541717      -13.1226915723  CLST         206          1.0000000000
      1028       206  DCM   H2           -9.3351944473        7.9953203445      -12.2331005249  CLST         206          1.0000000000
      1029       206  DCM   CL1         -11.0087435035        9.6741928251      -11.9248956574  CLST         206          1.0000000000
      1030       206  DCM   CL2         -10.9642758945        6.9684654057      -10.8189382509  CLST         206          1.0000000000
