* INITIAL
*  DATE:     6/28/26      3:28: 2      CREATED BY USER: boittier
*
       100  EXT
         1         1  DCM       C               6.6734104374       -1.5624211445       -2.5198060446  CLST      1               1.0000000000
         2         1  DCM       H1              6.3399739916       -2.4376047473       -3.1149521885  CLST      1               1.0000000000
         3         1  DCM       H2              7.7751961443       -1.5743622466       -2.3768102288  CLST      1               1.0000000000
         4         1  DCM       CL1             6.2178144598       -0.0607093849       -3.3803026756  CLST      1               1.0000000000
         5         1  DCM       CL2             5.8792946139       -1.6145526925       -0.9167691310  CLST      1               1.0000000000
         6         2  DCM       C               6.1191981288        9.0975076004        5.0368451971  CLST      2               1.0000000000
         7         2  DCM       H1              5.9249615727        8.1095889004        4.5700646757  CLST      2               1.0000000000
         8         2  DCM       H2              6.6679850648        8.9856942889        5.9961518766  CLST      2               1.0000000000
         9         2  DCM       CL1             7.1015798263       10.0848826980        3.9165447671  CLST      2               1.0000000000
        10         2  DCM       CL2             4.5559563338        9.9053615633        5.3534601122  CLST      2               1.0000000000
        11         3  DCM       C               2.2598245689      -11.4124396736        1.6433961518  CLST      3               1.0000000000
        12         3  DCM       H1              1.2579955563      -11.7887555022        1.9323624468  CLST      3               1.0000000000
        13         3  DCM       H2              2.1827954320      -10.5535989392        0.9467144725  CLST      3               1.0000000000
        14         3  DCM       CL1             3.1329824972      -10.8905479457        3.1159997205  CLST      3               1.0000000000
        15         3  DCM       CL2             3.1653111247      -12.7308521253        0.8407230816  CLST      3               1.0000000000
        16         4  DCM       C              -0.5806375520       12.6837668844        9.7467796449  CLST      4               1.0000000000
        17         4  DCM       H1              0.5005216695       12.4304293862        9.7631152072  CLST      4               1.0000000000
        18         4  DCM       H2             -1.1066587452       12.2509941508       10.6240218387  CLST      4               1.0000000000
        19         4  DCM       CL1            -0.7607801571       14.4624394848        9.7823270597  CLST      4               1.0000000000
        20         4  DCM       CL2            -1.3083522524       12.0286152114        8.2500207916  CLST      4               1.0000000000
        21         5  DCM       C              -8.2576824007        7.3793605573       -1.5986210518  CLST      5               1.0000000000
        22         5  DCM       H1             -7.4162508092        7.4572041121       -0.8776652362  CLST      5               1.0000000000
        23         5  DCM       H2             -8.7020482337        6.3616289305       -1.5859485240  CLST      5               1.0000000000
        24         5  DCM       CL1            -9.5162749221        8.5685709727       -1.1539459241  CLST      5               1.0000000000
        25         5  DCM       CL2            -7.6492196654        7.7258188960       -3.2434170702  CLST      5               1.0000000000
        26         6  DCM       C              -7.8434870601       -7.5312325306       -0.7601331640  CLST      6               1.0000000000
        27         6  DCM       H1             -8.5643125907       -7.6747691836       -1.5947622892  CLST      6               1.0000000000
        28         6  DCM       H2             -6.8244606098       -7.3132843813       -1.1433054297  CLST      6               1.0000000000
        29         6  DCM       CL1            -7.7885615681       -9.0222033518        0.2252127717  CLST      6               1.0000000000
        30         6  DCM       CL2            -8.3907936111       -6.1587862719        0.2451761821  CLST      6               1.0000000000
        31         7  DCM       C               7.2473431015      -12.7575127029        7.8630790238  CLST      7               1.0000000000
        32         7  DCM       H1              7.1273963175      -12.0955678966        8.7471139978  CLST      7               1.0000000000
        33         7  DCM       H2              8.2429662875      -13.2504445199        7.8640125050  CLST      7               1.0000000000
        34         7  DCM       CL1             5.9766785602      -14.0143184916        7.9033151046  CLST      7               1.0000000000
        35         7  DCM       CL2             7.0855296545      -11.7781586144        6.3759048829  CLST      7               1.0000000000
        36         8  DCM       C              14.4975884157       -4.5988610326       -5.1114821974  CLST      8               1.0000000000
        37         8  DCM       H1             13.4394082485       -4.7428017176       -4.8066637083  CLST      8               1.0000000000
        38         8  DCM       H2             14.5689358589       -4.2746188354       -6.1712717864  CLST      8               1.0000000000
        39         8  DCM       CL1            15.2368431858       -3.3473977390       -4.0701942790  CLST      8               1.0000000000
        40         8  DCM       CL2            15.3735800544       -6.1454057918       -4.9170437291  CLST      8               1.0000000000
        41         9  DCM       C               3.4186571930       -9.0546902916        6.2341993290  CLST      9               1.0000000000
        42         9  DCM       H1              4.1978520087       -8.9434884208        5.4503668113  CLST      9               1.0000000000
        43         9  DCM       H2              2.5128647595       -9.5532820424        5.8290382376  CLST      9               1.0000000000
        44         9  DCM       CL1             4.0754124927      -10.0434706667        7.5712408055  CLST      9               1.0000000000
        45         9  DCM       CL2             2.9668421630       -7.4347734248        6.8411592165  CLST      9               1.0000000000
        46        10  DCM       C             -18.5635196411        3.6966381162       -2.8606523629  CLST      10              1.0000000000
        47        10  DCM       H1            -17.5801130080        3.8991264724       -2.3860917071  CLST      10              1.0000000000
        48        10  DCM       H2            -18.9933752361        2.7385833520       -2.4991954474  CLST      10              1.0000000000
        49        10  DCM       CL1           -19.6882834857        5.0265494122       -2.4565701415  CLST      10              1.0000000000
        50        10  DCM       CL2           -18.3454523494        3.6034973000       -4.6329439217  CLST      10              1.0000000000
        51        11  DCM       C               8.9849085377        2.9397434946       -7.4424456775  CLST      11              1.0000000000
        52        11  DCM       H1              9.5010385270        3.5660444390       -8.2005172977  CLST      11              1.0000000000
        53        11  DCM       H2              7.9111736293        2.8089315637       -7.6944514679  CLST      11              1.0000000000
        54        11  DCM       CL1             9.7688660746        1.3335323699       -7.3848903111  CLST      11              1.0000000000
        55        11  DCM       CL2             9.1134228851        3.7353465725       -5.8462866083  CLST      11              1.0000000000
        56        12  DCM       C             -15.2547950348       -6.3702761413        6.1758762248  CLST      12              1.0000000000
        57        12  DCM       H1            -14.6977693386       -5.9883518170        5.2942769434  CLST      12              1.0000000000
        58        12  DCM       H2            -15.3903198337       -7.4710377528        6.1182352962  CLST      12              1.0000000000
        59        12  DCM       CL1           -14.3370576353       -5.9749585855        7.6585756223  CLST      12              1.0000000000
        60        12  DCM       CL2           -16.8622161158       -5.5890867975        6.2305654425  CLST      12              1.0000000000
        61        13  DCM       C             -11.8534715309        3.5549401969       -1.5931524220  CLST      13              1.0000000000
        62        13  DCM       H1            -10.9073232630        2.9826502609       -1.4926703595  CLST      13              1.0000000000
        63        13  DCM       H2            -12.2835222054        3.4429056872       -2.6111239969  CLST      13              1.0000000000
        64        13  DCM       CL1           -13.0319115765        2.9447112851       -0.3947946883  CLST      13              1.0000000000
        65        13  DCM       CL2           -11.5217203224        5.2854903012       -1.2904261394  CLST      13              1.0000000000
        66        14  DCM       C               8.2942965481       -4.7525491352       -0.1517352630  CLST      14              1.0000000000
        67        14  DCM       H1              7.8101121835       -5.2627156075        0.7110231567  CLST      14              1.0000000000
        68        14  DCM       H2              8.2383678989       -3.6477595221       -0.0431391959  CLST      14              1.0000000000
        69        14  DCM       CL1            10.0105282610       -5.2441715444       -0.2268951478  CLST      14              1.0000000000
        70        14  DCM       CL2             7.4561155923       -5.2295477190       -1.6556673190  CLST      14              1.0000000000
        71        15  DCM       C               5.4093394208        5.2652870115        6.9000240949  CLST      15              1.0000000000
        72        15  DCM       H1              4.7354265918        4.5877812897        7.4754631405  CLST      15              1.0000000000
        73        15  DCM       H2              6.4202613753        4.8111203482        6.7837672066  CLST      15              1.0000000000
        74        15  DCM       CL1             4.7088633028        5.5431415303        5.2823379098  CLST      15              1.0000000000
        75        15  DCM       CL2             5.5624443499        6.8127624841        7.7755750234  CLST      15              1.0000000000
        76        16  DCM       C               9.3362957026       10.4530017270       -5.1620911742  CLST      16              1.0000000000
        77        16  DCM       H1              8.5426016892       10.4338527218       -4.3854979990  CLST      16              1.0000000000
        78        16  DCM       H2              9.2528408201        9.5791474888       -5.8423398008  CLST      16              1.0000000000
        79        16  DCM       CL1             9.1748293432       11.9533612842       -6.1212093366  CLST      16              1.0000000000
        80        16  DCM       CL2            10.9339282837       10.4138702483       -4.3603910228  CLST      16              1.0000000000
        81        17  DCM       C              -4.7598399419       -6.9092625420        2.8874393954  CLST      17              1.0000000000
        82        17  DCM       H1             -5.2225428096       -7.7206465094        3.4884015607  CLST      17              1.0000000000
        83        17  DCM       H2             -3.8027830774       -6.5709475457        3.3407673040  CLST      17              1.0000000000
        84        17  DCM       CL1            -5.8873802953       -5.5244908779        2.8188169442  CLST      17              1.0000000000
        85        17  DCM       CL2            -4.4410268839       -7.5156197919        1.2357567452  CLST      17              1.0000000000
        86        18  DCM       C              -6.8095397292       -6.7106797418      -16.2638526080  CLST      18              1.0000000000
        87        18  DCM       H1             -5.7373190765       -6.6314247426      -15.9856517301  CLST      18              1.0000000000
        88        18  DCM       H2             -7.1581020591       -7.7642242740      -16.2203979406  CLST      18              1.0000000000
        89        18  DCM       CL1            -7.7790912391       -5.7305883352      -15.1252350474  CLST      18              1.0000000000
        90        18  DCM       CL2            -7.0243689611       -6.0961391842      -17.9291253450  CLST      18              1.0000000000
        91        19  DCM       C               3.4414144495        6.4516359837       -6.9744726843  CLST      19              1.0000000000
        92        19  DCM       H1              3.7850209385        6.8073343153       -5.9804527786  CLST      19              1.0000000000
        93        19  DCM       H2              3.3195280950        7.2981730379       -7.6829374087  CLST      19              1.0000000000
        94        19  DCM       CL1             4.6505522648        5.3097672344       -7.6333979012  CLST      19              1.0000000000
        95        19  DCM       CL2             1.8668723987        5.6259151785       -6.7825831451  CLST      19              1.0000000000
        96        20  DCM       C              -1.5692756027        9.4412361476        3.9370170789  CLST      20              1.0000000000
        97        20  DCM       H1             -1.5207785815       10.1728248438        3.1028170876  CLST      20              1.0000000000
        98        20  DCM       H2             -2.4625132269        9.6177118573        4.5729904646  CLST      20              1.0000000000
        99        20  DCM       CL1            -1.6575730675        7.7900138338        3.2563914796  CLST      20              1.0000000000
       100        20  DCM       CL2            -0.0992435812        9.6068974488        4.9419160221  CLST      20              1.0000000000
