* PRE_MLPOT:MONOMER_REPACK
*  DATE:     6/28/26      3:28: 2      CREATED BY USER: boittier
*
       100  EXT
         1         1  DCM       C              -3.1692526392        3.0278474586        3.1973659234  CLST      1               1.0000000000
         2         1  DCM       H1             -3.5026890849        2.1526638558        2.6022197795  CLST      1               1.0000000000
         3         1  DCM       H2             -2.0674669322        3.0159063565        3.3403617392  CLST      1               1.0000000000
         4         1  DCM       CL1            -3.6248486167        4.5295592182        2.3368692923  CLST      1               1.0000000000
         5         1  DCM       CL2            -3.9633684626        2.9757159106        4.8004028370  CLST      1               1.0000000000
         6         2  DCM       C               1.2222972850        0.2669814388       -0.2785045510  CLST      2               1.0000000000
         7         2  DCM       H1              1.0280607289       -0.7209372612       -0.7452850724  CLST      2               1.0000000000
         8         2  DCM       H2              1.7710842210        0.1551681273        0.6808021285  CLST      2               1.0000000000
         9         2  DCM       CL1             2.2046789825        1.2543565364       -1.3988049810  CLST      2               1.0000000000
        10         2  DCM       CL2            -0.3409445100        1.0748354017        0.0381103641  CLST      2               1.0000000000
        11         3  DCM       C              -5.5643843925       -2.2592940489        3.7062312254  CLST      3               1.0000000000
        12         3  DCM       H1             -6.5662134051       -2.6356098774        3.9951975204  CLST      3               1.0000000000
        13         3  DCM       H2             -5.6414135294       -1.4004533145        3.0095495461  CLST      3               1.0000000000
        14         3  DCM       CL1            -4.6912264642       -1.7374023209        5.1788347942  CLST      3               1.0000000000
        15         3  DCM       CL2            -4.6588978367       -3.5777065005        2.9035581552  CLST      3               1.0000000000
        16         4  DCM       C              -1.7747853454       -4.1654947438       -1.3671002673  CLST      4               1.0000000000
        17         4  DCM       H1             -0.6936261240       -4.4188322421       -1.3507647050  CLST      4               1.0000000000
        18         4  DCM       H2             -2.3008065387       -4.5982674775       -0.4898580735  CLST      4               1.0000000000
        19         4  DCM       CL1            -1.9549279505       -2.3868221435       -1.3315528525  CLST      4               1.0000000000
        20         4  DCM       CL2            -2.5025000458       -4.8206464169       -2.8638591206  CLST      4               1.0000000000
        21         5  DCM       C               3.9523728490        4.4822909122       -3.5396712479  CLST      5               1.0000000000
        22         5  DCM       H1              4.7938044405        4.5601344671       -2.8187154324  CLST      5               1.0000000000
        23         5  DCM       H2              3.5080070159        3.4645592854       -3.5269987201  CLST      5               1.0000000000
        24         5  DCM       CL1             2.6937803276        5.6715013277       -3.0949961202  CLST      5               1.0000000000
        25         5  DCM       CL2             4.5608355842        4.8287492509       -5.1844672663  CLST      5               1.0000000000
        26         6  DCM       C               4.2347600791       -2.0890570149       -5.3504219157  CLST      6               1.0000000000
        27         6  DCM       H1              3.5139345486       -2.2325936678       -6.1850510408  CLST      6               1.0000000000
        28         6  DCM       H2              5.2537865294       -1.8711088655       -5.7335941813  CLST      6               1.0000000000
        29         6  DCM       CL1             4.2896855712       -3.5800278361       -4.3650759799  CLST      6               1.0000000000
        30         6  DCM       CL2             3.6874535281       -0.7166107562       -4.3451125695  CLST      6               1.0000000000
        31         7  DCM       C              -0.9404623857        3.7906314329       -0.4119185363  CLST      7               1.0000000000
        32         7  DCM       H1             -1.0604091697        4.4525762392        0.4721164377  CLST      7               1.0000000000
        33         7  DCM       H2              0.0551608003        3.2976996159       -0.4109850551  CLST      7               1.0000000000
        34         7  DCM       CL1            -2.2111269270        2.5338256441       -0.3716824554  CLST      7               1.0000000000
        35         7  DCM       CL2            -1.1022758327        4.7699855213       -1.8990926772  CLST      7               1.0000000000
        36         8  DCM       C               0.5388696155       -0.4592142709        3.7091167850  CLST      8               1.0000000000
        37         8  DCM       H1             -0.5193105517       -0.6031549559        4.0139352740  CLST      8               1.0000000000
        38         8  DCM       H2              0.6102170587       -0.1349720737        2.6493271960  CLST      8               1.0000000000
        39         8  DCM       CL1             1.2781243857        0.7922490228        4.7504047034  CLST      8               1.0000000000
        40         8  DCM       CL2             1.4148612542       -2.0057590301        3.9035552532  CLST      8               1.0000000000
        41         9  DCM       C               4.4323830861        4.2129445702        1.4930293435  CLST      9               1.0000000000
        42         9  DCM       H1              5.2115779018        4.3241464410        0.7091968257  CLST      9               1.0000000000
        43         9  DCM       H2              3.5265906526        3.7143528195        1.0878682520  CLST      9               1.0000000000
        44         9  DCM       CL1             5.0891383858        3.2241641951        2.8300708200  CLST      9               1.0000000000
        45         9  DCM       CL2             3.9805680561        5.8328614370        2.0999892309  CLST      9               1.0000000000
        46        10  DCM       C               3.9386833355       -5.0769464318       -1.3568860881  CLST      10              1.0000000000
        47        10  DCM       H1              4.9220899687       -4.8744580755       -0.8823254323  CLST      10              1.0000000000
        48        10  DCM       H2              3.5088277405       -6.0350011960       -0.9954291726  CLST      10              1.0000000000
        49        10  DCM       CL1             2.8139194909       -3.7470351358       -0.9528038667  CLST      10              1.0000000000
        50        10  DCM       CL2             4.1567506273       -5.1700872480       -3.1291776469  CLST      10              1.0000000000
        51        11  DCM       C              -5.5232038954       -0.1077443872       -0.6137684461  CLST      11              1.0000000000
        52        11  DCM       H1             -5.0070739061        0.5185565573       -1.3718400663  CLST      11              1.0000000000
        53        11  DCM       H2             -6.5969388038       -0.2385563181       -0.8657742365  CLST      11              1.0000000000
        54        11  DCM       CL1            -4.7392463585       -1.7139555119       -0.5562130797  CLST      11              1.0000000000
        55        11  DCM       CL2            -5.3946895480        0.6878586907        0.9823906231  CLST      11              1.0000000000
        56        12  DCM       C              -0.9706051099       -0.9415129519       -3.8323497712  CLST      12              1.0000000000
        57        12  DCM       H1             -0.4135794137       -0.5595886275       -4.7139490526  CLST      12              1.0000000000
        58        12  DCM       H2             -1.1061299088       -2.0422745633       -3.8899906998  CLST      12              1.0000000000
        59        12  DCM       CL1            -0.0528677104       -0.5461953960       -2.3496503737  CLST      12              1.0000000000
        60        12  DCM       CL2            -2.5780261909       -0.1603236080       -3.7776605535  CLST      12              1.0000000000
        61        13  DCM       C               0.8418293194        5.1849451386        2.8528996579  CLST      13              1.0000000000
        62        13  DCM       H1              1.7879775872        4.6126552026        2.9533817204  CLST      13              1.0000000000
        63        13  DCM       H2              0.4117786449        5.0729106289        1.8349280830  CLST      13              1.0000000000
        64        13  DCM       CL1            -0.3366107263        4.5747162267        4.0512573916  CLST      13              1.0000000000
        65        13  DCM       CL2             1.1735805278        6.9154952429        3.1556259405  CLST      13              1.0000000000
        66        14  DCM       C               4.6267628251       -1.9644618685        1.8948302394  CLST      14              1.0000000000
        67        14  DCM       H1              4.1425784605       -2.4746283408        2.7575886591  CLST      14              1.0000000000
        68        14  DCM       H2              4.5708341759       -0.8596722553        2.0034263064  CLST      14              1.0000000000
        69        14  DCM       CL1             6.3429945380       -2.4560842777        1.8196703546  CLST      14              1.0000000000
        70        14  DCM       CL2             3.7885818693       -2.4414604523        0.3908981834  CLST      14              1.0000000000
        71        15  DCM       C              -5.6789958629        4.5002114368       -4.7092927209  CLST      15              1.0000000000
        72        15  DCM       H1             -6.3529086919        3.8227057150       -4.1338536754  CLST      15              1.0000000000
        73        15  DCM       H2             -4.6680739085        4.0460447735       -4.8255496093  CLST      15              1.0000000000
        74        15  DCM       CL1            -6.3794719809        4.7780659556       -6.3269789061  CLST      15              1.0000000000
        75        15  DCM       CL2            -5.5258909339        6.0476869095       -3.8337417925  CLST      15              1.0000000000
        76        16  DCM       C              -1.4814716810        3.1913018979       -4.6308336200  CLST      16              1.0000000000
        77        16  DCM       H1             -2.2751656944        3.1721528927       -3.8542404448  CLST      16              1.0000000000
        78        16  DCM       H2             -1.5649265635        2.3174476597       -5.3110822465  CLST      16              1.0000000000
        79        16  DCM       CL1            -1.6429380404        4.6916614552       -5.5899517823  CLST      16              1.0000000000
        80        16  DCM       CL2             0.1161609000        3.1521704193       -3.8291334686  CLST      16              1.0000000000
        81        17  DCM       C              -0.5479723139       -4.6554923694        2.8634462269  CLST      17              1.0000000000
        82        17  DCM       H1             -1.0106751816       -5.4668763367        3.4644083922  CLST      17              1.0000000000
        83        17  DCM       H2              0.4090845506       -4.3171773731        3.3167741355  CLST      17              1.0000000000
        84        17  DCM       CL1            -1.6755126674       -3.2707207053        2.7948237757  CLST      17              1.0000000000
        85        17  DCM       CL2            -0.2291592560       -5.2618496192        1.2117635767  CLST      17              1.0000000000
        86        18  DCM       C              -5.6495908083       -3.9316921401       -3.1155767702  CLST      18              1.0000000000
        87        18  DCM       H1             -4.5773701556       -3.8524371410       -2.8373758924  CLST      18              1.0000000000
        88        18  DCM       H2             -5.9981531381       -4.9852366723       -3.0721221029  CLST      18              1.0000000000
        89        18  DCM       CL1            -6.6191423182       -2.9516007335       -1.9769592097  CLST      18              1.0000000000
        90        18  DCM       CL2            -5.8644200402       -3.3171515825       -4.7808495072  CLST      18              1.0000000000
        91        19  DCM       C               4.8051786511        1.6263611209        5.1364371615  CLST      19              1.0000000000
        92        19  DCM       H1              5.1487851401        1.9820594525        6.1304570672  CLST      19              1.0000000000
        93        19  DCM       H2              4.6832922966        2.4728981751        4.4279724371  CLST      19              1.0000000000
        94        19  DCM       CL1             6.0143164664        0.4844923715        4.4775119446  CLST      19              1.0000000000
        95        19  DCM       CL2             3.2306366003        0.8006403156        5.3283267007  CLST      19              1.0000000000
        96        20  DCM       C               2.8976153991       -5.3294123962        4.3391788626  CLST      20              1.0000000000
        97        20  DCM       H1              2.9461124203       -4.5978237000        3.5049788713  CLST      20              1.0000000000
        98        20  DCM       H2              2.0043777749       -5.1529366866        4.9751522484  CLST      20              1.0000000000
        99        20  DCM       CL1             2.8093179342       -6.9806347100        3.6585532634  CLST      20              1.0000000000
       100        20  DCM       CL2             4.3676474206       -5.1637510951        5.3440778058  CLST      20              1.0000000000
