* CHARMM CGENFF SD/ABNR BEFORE MLPOT (MM ONLY)
*  DATE:     6/28/26      1:57:36      CREATED BY USER: boittier
*
       475  EXT
         1         1  DCM       C               1.3016133649        9.4646426629        5.4408993921  CLST      1               1.0000000000
         2         1  DCM       H1              2.3479619321        9.8129455185        5.5672973270  CLST      1               1.0000000000
         3         1  DCM       H2              0.7052567069       10.1968217627        4.8570152208  CLST      1               1.0000000000
         4         1  DCM       CL1             0.5553639726        9.2569277033        7.0511483380  CLST      1               1.0000000000
         5         1  DCM       CL2             1.3118232827        7.9028576779        4.5758643454  CLST      1               1.0000000000
         6         2  DCM       C               3.8596926160       -1.8379566002        3.2773040713  CLST      2               1.0000000000
         7         2  DCM       H1              3.1772599728       -1.2977523266        2.5884398541  CLST      2               1.0000000000
         8         2  DCM       H2              4.7530670273       -1.2248370196        3.5185390107  CLST      2               1.0000000000
         9         2  DCM       CL1             2.9811299832       -2.2058134323        4.7872095956  CLST      2               1.0000000000
        10         2  DCM       CL2             4.3906395749       -3.3573216623        2.5038311022  CLST      2               1.0000000000
        11         3  DCM       C              -0.9741244393       -7.6121761062        7.6044587164  CLST      3               1.0000000000
        12         3  DCM       H1             -1.5094571826       -6.7388192599        7.1784627762  CLST      3               1.0000000000
        13         3  DCM       H2             -0.0302924417       -7.2972565175        8.0976303217  CLST      3               1.0000000000
        14         3  DCM       CL1            -2.0266736405       -8.4004910325        8.8141743286  CLST      3               1.0000000000
        15         3  DCM       CL2            -0.5941371102       -8.7614224004        6.2883692072  CLST      3               1.0000000000
        16         4  DCM       C               8.6470636786        8.6984859894       -8.6812367796  CLST      4               1.0000000000
        17         4  DCM       H1              9.3920843976        8.1437254313       -9.2903940304  CLST      4               1.0000000000
        18         4  DCM       H2              9.0173363171        9.7120033772       -8.4185886937  CLST      4               1.0000000000
        19         4  DCM       CL1             8.3338072468        7.7888299585       -7.1757327590  CLST      4               1.0000000000
        20         4  DCM       CL2             7.1337959956        8.8580900356       -9.6178892429  CLST      4               1.0000000000
        21         5  DCM       C              -2.7238331413        8.8614686167        5.3003339792  CLST      5               1.0000000000
        22         5  DCM       H1             -3.8323812506        8.8971399283        5.2991129444  CLST      5               1.0000000000
        23         5  DCM       H2             -2.3136315086        9.2660301332        6.2495210138  CLST      5               1.0000000000
        24         5  DCM       CL1            -2.2053857432        7.1629312578        5.1204766298  CLST      5               1.0000000000
        25         5  DCM       CL2            -2.1113796255        9.8329661130        3.9319398632  CLST      5               1.0000000000
        26         6  DCM       C              -4.3963190202      -10.7642074845       -7.7386751248  CLST      6               1.0000000000
        27         6  DCM       H1             -3.7164046499      -10.6297092160       -6.8718719962  CLST      6               1.0000000000
        28         6  DCM       H2             -4.2333891839       -9.9748660351       -8.5013025198  CLST      6               1.0000000000
        29         6  DCM       CL1            -4.0805937912      -12.3577289850       -8.4830212045  CLST      6               1.0000000000
        30         6  DCM       CL2            -6.0877379031      -10.6808924860       -7.1668171344  CLST      6               1.0000000000
        31         7  DCM       C              -7.7556713451        5.0700734662        9.4226386249  CLST      7               1.0000000000
        32         7  DCM       H1             -7.6971871572        3.9874510695        9.1810906877  CLST      7               1.0000000000
        33         7  DCM       H2             -6.7500567598        5.4891933339        9.6387961959  CLST      7               1.0000000000
        34         7  DCM       CL1            -8.4635739561        5.9388586056        8.0301545126  CLST      7               1.0000000000
        35         7  DCM       CL2            -8.7939069215        5.2858493898       10.8607618528  CLST      7               1.0000000000
        36         8  DCM       C              -4.8101222579       -0.2328339988        4.7746480749  CLST      8               1.0000000000
        37         8  DCM       H1             -3.7547344005       -0.3904504830        4.4658408490  CLST      8               1.0000000000
        38         8  DCM       H2             -4.8691624809        0.1142491583        5.8279599467  CLST      8               1.0000000000
        39         8  DCM       CL1            -5.5488598685        1.0013605852        3.7132216320  CLST      8               1.0000000000
        40         8  DCM       CL2            -5.7026039081       -1.7744601793        4.6192956865  CLST      8               1.0000000000
        41         9  DCM       C              -7.3598207146        6.9585737913        4.1923342896  CLST      9               1.0000000000
        42         9  DCM       H1             -7.8464805053        6.1879491072        3.5575722754  CLST      9               1.0000000000
        43         9  DCM       H2             -7.4548960867        6.7063593371        5.2695745855  CLST      9               1.0000000000
        44         9  DCM       CL1            -5.6271956784        7.0530579688        3.7658209303  CLST      9               1.0000000000
        45         9  DCM       CL2            -8.1388908021        8.5385627305        3.8914672494  CLST      9               1.0000000000
        46        10  DCM       C               0.9813518238        1.6015138256       -2.4312786175  CLST      10              1.0000000000
        47        10  DCM       H1              1.2999554776        1.7423271839       -1.3774357623  CLST      10              1.0000000000
        48        10  DCM       H2              1.0124978214        2.5580918487       -2.9906073246  CLST      10              1.0000000000
        49        10  DCM       CL1             2.0841534999        0.4408710398       -3.2182390837  CLST      10              1.0000000000
        50        10  DCM       CL2            -0.6901578299        0.9724038325       -2.4674228793  CLST      10              1.0000000000
        51        11  DCM       C               9.4138871627        5.9020930978       -2.5295066660  CLST      11              1.0000000000
        52        11  DCM       H1              8.4747254054        5.5386974438       -2.9975009592  CLST      11              1.0000000000
        53        11  DCM       H2              9.2051939154        6.4368041230       -1.5786508534  CLST      11              1.0000000000
        54        11  DCM       CL1            10.4680522710        4.4990973097       -2.1928919668  CLST      11              1.0000000000
        55        11  DCM       CL2            10.2256127513        7.0222211189       -3.6623352587  CLST      11              1.0000000000
        56        12  DCM       C              -2.4483456333        6.8301973478        1.5070280837  CLST      12              1.0000000000
        57        12  DCM       H1             -2.9791678952        7.5041407667        2.2120172568  CLST      12              1.0000000000
        58        12  DCM       H2             -2.7302643618        7.0523540685        0.4562799512  CLST      12              1.0000000000
        59        12  DCM       CL1            -0.6853206156        7.0557757477        1.6979081860  CLST      12              1.0000000000
        60        12  DCM       CL2            -2.8850460182        5.1392651062        1.8854773292  CLST      12              1.0000000000
        61        13  DCM       C               4.4517069935        0.7026948468       -7.0214897941  CLST      13              1.0000000000
        62        13  DCM       H1              5.4097086159        0.5756863108       -7.5661003821  CLST      13              1.0000000000
        63        13  DCM       H2              4.3354932451        1.7430373948       -6.6549124666  CLST      13              1.0000000000
        64        13  DCM       CL1             3.1019391328        0.3126323785       -8.1254749329  CLST      13              1.0000000000
        65        13  DCM       CL2             4.4344507690       -0.4002387186       -5.6204179788  CLST      13              1.0000000000
        66        14  DCM       C               8.2479719990       -0.9113376709        6.8079343334  CLST      14              1.0000000000
        67        14  DCM       H1              8.4162235224        0.0741410795        7.2916435251  CLST      14              1.0000000000
        68        14  DCM       H2              9.1284733397       -1.2132216802        6.2023200840  CLST      14              1.0000000000
        69        14  DCM       CL1             7.9675637161       -2.1406750591        8.0740851193  CLST      14              1.0000000000
        70        14  DCM       CL2             6.8153331604       -0.8014515533        5.7445831280  CLST      14              1.0000000000
        71        15  DCM       C              -2.0540673924        7.9082283288       10.0972132197  CLST      15              1.0000000000
        72        15  DCM       H1             -1.2684281446        7.9199599968       10.8814857898  CLST      15              1.0000000000
        73        15  DCM       H2             -2.2137366562        8.9243575101        9.6788780530  CLST      15              1.0000000000
        74        15  DCM       CL1            -1.5492025020        6.8107946844        8.7802066594  CLST      15              1.0000000000
        75        15  DCM       CL2            -3.5828897349        7.3243014569       10.8169953525  CLST      15              1.0000000000
        76        16  DCM       C              -5.5866832137       -4.7702571272        6.8261062220  CLST      16              1.0000000000
        77        16  DCM       H1             -6.6278116059       -5.1337561579        6.7026666331  CLST      16              1.0000000000
        78        16  DCM       H2             -5.1644132415       -4.4385694485        5.8550773567  CLST      16              1.0000000000
        79        16  DCM       CL1            -4.5841786343       -6.0966429111        7.4758453845  CLST      16              1.0000000000
        80        16  DCM       CL2            -5.5776668670       -3.3987941381        7.9702618670  CLST      16              1.0000000000
        81        17  DCM       C               0.3617548241       -3.2757440137       -5.9632771863  CLST      17              1.0000000000
        82        17  DCM       H1             -0.4609065164       -3.2479164599       -6.7076137964  CLST      17              1.0000000000
        83        17  DCM       H2              0.5614512799       -4.3140945798       -5.6262865267  CLST      17              1.0000000000
        84        17  DCM       CL1             1.8397898023       -2.6188907882       -6.7132296415  CLST      17              1.0000000000
        85        17  DCM       CL2            -0.0908932993       -2.2823490950       -4.5517787735  CLST      17              1.0000000000
        86        18  DCM       C              -3.6531254136       -1.4290947425       -3.3295015869  CLST      18              1.0000000000
        87        18  DCM       H1             -2.9692172285       -0.9305003158       -2.6118262778  CLST      18              1.0000000000
        88        18  DCM       H2             -4.7147189380       -1.2651302119       -3.0475149494  CLST      18              1.0000000000
        89        18  DCM       CL1            -3.3698302699       -0.7579392937       -4.9617727773  CLST      18              1.0000000000
        90        18  DCM       CL2            -3.3147311279       -3.1833899858       -3.3257694999  CLST      18              1.0000000000
        91        19  DCM       C               1.2121524381        7.0906732449       -7.3665417614  CLST      19              1.0000000000
        92        19  DCM       H1              2.2216910749        7.1949000129       -6.9169289313  CLST      19              1.0000000000
        93        19  DCM       H2              1.2684429809        6.5920460993       -8.3568156387  CLST      19              1.0000000000
        94        19  DCM       CL1             0.1848193335        6.1125664566       -6.2807004407  CLST      19              1.0000000000
        95        19  DCM       CL2             0.4956598424        8.7145616176       -7.5695452084  CLST      19              1.0000000000
        96        20  DCM       C               3.7924822046        8.4145434173      -11.5260280309  CLST      20              1.0000000000
        97        20  DCM       H1              4.3664938410        8.8713169904      -10.6930339396  CLST      20              1.0000000000
        98        20  DCM       H2              3.6629175965        9.1329346243      -12.3627595682  CLST      20              1.0000000000
        99        20  DCM       CL1             4.6778533488        6.9805434072      -12.1216437141  CLST      20              1.0000000000
       100        20  DCM       CL2             2.1821215887        7.9269350143      -10.9221333308  CLST      20              1.0000000000
       101        21  DCM       C               0.0288985026        0.7477617042       -6.1534297628  CLST      21              1.0000000000
       102        21  DCM       H1             -0.6756601769        0.5336684317       -5.3239245708  CLST      21              1.0000000000
       103        21  DCM       H2              0.9743343555        0.1788362329       -6.0305202183  CLST      21              1.0000000000
       104        21  DCM       CL1            -0.7407460023        0.2737314390       -7.6945760938  CLST      21              1.0000000000
       105        21  DCM       CL2             0.4000390840        2.4945243780       -6.1573255100  CLST      21              1.0000000000
       106        22  DCM       C              -7.8892813540       -6.1766006457        9.4695657935  CLST      22              1.0000000000
       107        22  DCM       H1             -8.3315751828       -6.5760173772       10.4065920646  CLST      22              1.0000000000
       108        22  DCM       H2             -6.8145921391       -5.9321713526        9.6072192871  CLST      22              1.0000000000
       109        22  DCM       CL1            -8.0444181374       -7.4097671227        8.1842248837  CLST      22              1.0000000000
       110        22  DCM       CL2            -8.7684936442       -4.6923230486        8.9983278534  CLST      22              1.0000000000
       111        23  DCM       C              -7.7927281757        4.5173646511      -12.6741841387  CLST      23              1.0000000000
       112        23  DCM       H1             -8.5658040873        4.9118109226      -13.3668672748  CLST      23              1.0000000000
       113        23  DCM       H2             -6.7901242232        4.9253311315      -12.9227960107  CLST      23              1.0000000000
       114        23  DCM       CL1            -8.2133005389        4.9884775702      -11.0015310798  CLST      23              1.0000000000
       115        23  DCM       CL2            -7.7493066364        2.7353322654      -12.8083906181  CLST      23              1.0000000000
       116        24  DCM       C               2.1903842772       -7.7263363306        1.7863971748  CLST      24              1.0000000000
       117        24  DCM       H1              2.4447652230       -6.7238895716        2.1907562113  CLST      24              1.0000000000
       118        24  DCM       H2              3.0574401732       -8.1771498824        1.2616824176  CLST      24              1.0000000000
       119        24  DCM       CL1             1.7051857690       -8.8000526235        3.1306809188  CLST      24              1.0000000000
       120        24  DCM       CL2             0.8460429362       -7.5578513485        0.6248699442  CLST      24              1.0000000000
       121        25  DCM       C             -11.0958673757       -0.4355004083        7.5423964801  CLST      25              1.0000000000
       122        25  DCM       H1            -10.8829413509        0.3540802695        8.2925436442  CLST      25              1.0000000000
       123        25  DCM       H2            -10.2853087752       -0.4971236488        6.7875187639  CLST      25              1.0000000000
       124        25  DCM       CL1           -11.2305933495       -2.0074021934        8.3808410224  CLST      25              1.0000000000
       125        25  DCM       CL2           -12.6293531222       -0.0538627500        6.7085178608  CLST      25              1.0000000000
       126        26  DCM       C               1.8141495940        7.3860820714       10.1139176428  CLST      26              1.0000000000
       127        26  DCM       H1              1.8047604748        7.3245610618        9.0053818893  CLST      26              1.0000000000
       128        26  DCM       H2              0.9721988286        6.8094610502       10.5503466344  CLST      26              1.0000000000
       129        26  DCM       CL1             3.3523563317        6.7134380060       10.7262356703  CLST      26              1.0000000000
       130        26  DCM       CL2             1.6612193745        9.0980668684       10.6033229298  CLST      26              1.0000000000
       131        27  DCM       C              -0.7421424545       -8.7604651445       -9.4865236545  CLST      27              1.0000000000
       132        27  DCM       H1              0.1471846830       -8.8831441538       -8.8326959033  CLST      27              1.0000000000
       133        27  DCM       H2             -0.5158550952       -8.1028008897      -10.3523443195  CLST      27              1.0000000000
       134        27  DCM       CL1            -1.2513193477      -10.3642372463      -10.0887625899  CLST      27              1.0000000000
       135        27  DCM       CL2            -2.0635147949       -8.0271902226       -8.5360413826  CLST      27              1.0000000000
       136        28  DCM       C              -3.6497605062       -3.1540526575       -7.7769364141  CLST      28              1.0000000000
       137        28  DCM       H1             -2.7711181258       -2.8184056661       -7.1870336684  CLST      28              1.0000000000
       138        28  DCM       H2             -4.0968677594       -2.3091136912       -8.3419897865  CLST      28              1.0000000000
       139        28  DCM       CL1            -3.1293811463       -4.4159435047       -8.9316154289  CLST      28              1.0000000000
       140        28  DCM       CL2            -4.8771359125       -3.8205195475       -6.6606667332  CLST      28              1.0000000000
       141        29  DCM       C              -5.9520019365       -9.3401457502        5.3088180666  CLST      29              1.0000000000
       142        29  DCM       H1             -6.5880038854       -9.7126935512        6.1394743393  CLST      29              1.0000000000
       143        29  DCM       H2             -6.0121464376      -10.0107020460        4.4256159340  CLST      29              1.0000000000
       144        29  DCM       CL1            -6.5083175499       -7.7073852557        4.8406692957  CLST      29              1.0000000000
       145        29  DCM       CL2            -4.2551376707       -9.2677184362        5.8641830116  CLST      29              1.0000000000
       146        30  DCM       C              -8.9567688961       -6.6170925629      -12.3444685634  CLST      30              1.0000000000
       147        30  DCM       H1             -8.8506101699       -6.3449337572      -11.2739303936  CLST      30              1.0000000000
       148        30  DCM       H2             -8.9066109414       -5.7158598813      -12.9913798644  CLST      30              1.0000000000
       149        30  DCM       CL1            -7.6351779544       -7.7329127201      -12.7927862991  CLST      30              1.0000000000
       150        30  DCM       CL2           -10.5358973087       -7.4193382411      -12.5833151681  CLST      30              1.0000000000
       151        31  DCM       C               5.7658116179        1.7521616941      -12.0524112036  CLST      31              1.0000000000
       152        31  DCM       H1              4.9719243092        1.1189014488      -12.5021985403  CLST      31              1.0000000000
       153        31  DCM       H2              6.7768952679        1.3949301408      -12.3416763454  CLST      31              1.0000000000
       154        31  DCM       CL1             5.6166331854        1.6883959337      -10.2751839704  CLST      31              1.0000000000
       155        31  DCM       CL2             5.5571883220        3.4362413212      -12.6110206973  CLST      31              1.0000000000
       156        32  DCM       C               5.8407447968       -7.6986465597        5.0588953565  CLST      32              1.0000000000
       157        32  DCM       H1              5.3034940909       -8.6658070220        5.1566562101  CLST      32              1.0000000000
       158        32  DCM       H2              5.8710257254       -7.1596850982        6.0297814339  CLST      32              1.0000000000
       159        32  DCM       CL1             7.5117230188       -8.0115142241        4.5086330937  CLST      32              1.0000000000
       160        32  DCM       CL2             4.9953886769       -6.6872533825        3.8541086812  CLST      32              1.0000000000
       161        33  DCM       C               1.8635962958       -5.7170946930        5.3793140780  CLST      33              1.0000000000
       162        33  DCM       H1              1.3481123134       -6.2829636395        4.5765489157  CLST      33              1.0000000000
       163        33  DCM       H2              2.6851897048       -5.0979834489        4.9621586462  CLST      33              1.0000000000
       164        33  DCM       CL1             0.6802573450       -4.6514369975        6.1880179956  CLST      33              1.0000000000
       165        33  DCM       CL2             2.5448668406       -6.8727188549        6.5587936252  CLST      33              1.0000000000
       166        34  DCM       C              -5.8373995520        8.3763638413        7.5368033006  CLST      34              1.0000000000
       167        34  DCM       H1             -6.2058214757        8.6806908566        6.5346061691  CLST      34              1.0000000000
       168        34  DCM       H2             -6.6781368543        8.2698174810        8.2529373260  CLST      34              1.0000000000
       169        34  DCM       CL1            -4.9963072824        6.8060354337        7.3989770164  CLST      34              1.0000000000
       170        34  DCM       CL2            -4.7086056594        9.6193950240        8.1481441447  CLST      34              1.0000000000
       171        35  DCM       C              -4.1585091500       -1.4096149933        1.0932321436  CLST      35              1.0000000000
       172        35  DCM       H1             -3.1166522845       -1.4033424708        1.4778650470  CLST      35              1.0000000000
       173        35  DCM       H2             -4.8890724701       -1.2992375011        1.9191470176  CLST      35              1.0000000000
       174        35  DCM       CL1            -4.3738978410       -0.0528518739       -0.0478792786  CLST      35              1.0000000000
       175        35  DCM       CL2            -4.4708230401       -2.9547054940        0.2547188214  CLST      35              1.0000000000
       176        36  DCM       C               4.9358611867        9.5035971652       -6.4900221043  CLST      36              1.0000000000
       177        36  DCM       H1              4.2871787353        9.4735230971       -5.5894222678  CLST      36              1.0000000000
       178        36  DCM       H2              5.4266671792        8.5228706609       -6.6609242023  CLST      36              1.0000000000
       179        36  DCM       CL1             3.9376496463        9.9126887591       -7.9148730085  CLST      36              1.0000000000
       180        36  DCM       CL2             6.2007660190       10.7448604241       -6.2579282660  CLST      36              1.0000000000
       181        37  DCM       C               7.8477779824       -4.1273499265        3.5643039263  CLST      37              1.0000000000
       182        37  DCM       H1              7.0762000238       -3.3294166892        3.5609756783  CLST      37              1.0000000000
       183        37  DCM       H2              7.5522568782       -4.9650615227        4.2295142705  CLST      37              1.0000000000
       184        37  DCM       CL1             8.0509774319       -4.7565662992        1.9043698257  CLST      37              1.0000000000
       185        37  DCM       CL2             9.3876598843       -3.4338971746        4.1466783687  CLST      37              1.0000000000
       186        38  DCM       C               6.8432305632        4.7501584524        7.7679503733  CLST      38              1.0000000000
       187        38  DCM       H1              6.4171749457        5.6235154261        7.2300147758  CLST      38              1.0000000000
       188        38  DCM       H2              7.8986514588        4.9378545381        8.0580732523  CLST      38              1.0000000000
       189        38  DCM       CL1             5.8812103205        4.4551619216        9.2448115792  CLST      38              1.0000000000
       190        38  DCM       CL2             6.7752302612        3.3158292189        6.7026322452  CLST      38              1.0000000000
       191        39  DCM       C               5.8562019668       -8.1070688348       -6.2463956783  CLST      39              1.0000000000
       192        39  DCM       H1              6.1207839071       -7.7939992983       -5.2145179659  CLST      39              1.0000000000
       193        39  DCM       H2              6.0436330610       -9.1914119647       -6.3956141261  CLST      39              1.0000000000
       194        39  DCM       CL1             4.1238815801       -7.7705787613       -6.5336044875  CLST      39              1.0000000000
       195        39  DCM       CL2             6.8536048775       -7.1793996465       -7.4031841575  CLST      39              1.0000000000
       196        40  DCM       C               4.9160170119       -5.1981068070       -0.5850621072  CLST      40              1.0000000000
       197        40  DCM       H1              5.3813146500       -4.2871075706       -0.1528221325  CLST      40              1.0000000000
       198        40  DCM       H2              5.2460440063       -5.3573190545       -1.6317993592  CLST      40              1.0000000000
       199        40  DCM       CL1             3.1409361104       -5.0251800231       -0.5511901467  CLST      40              1.0000000000
       200        40  DCM       CL2             5.3872467581       -6.6152666543        0.3876030116  CLST      40              1.0000000000
       201        41  DCM       C              -0.4268631118       -9.9096628137       -5.4927576569  CLST      41              1.0000000000
       202        41  DCM       H1              0.6805082669       -9.8795383399       -5.4144918194  CLST      41              1.0000000000
       203        41  DCM       H2             -0.8216129598       -8.9780533771       -5.9508287895  CLST      41              1.0000000000
       204        41  DCM       CL1            -1.1179658757      -10.0875679222       -3.8536394847  CLST      41              1.0000000000
       205        41  DCM       CL2            -0.8952746052      -11.3027459604       -6.5077900756  CLST      41              1.0000000000
       206        42  DCM       C              -1.8892711222      -10.4415760256        3.1022138560  CLST      42              1.0000000000
       207        42  DCM       H1             -2.1654781789       -9.4474861264        3.5114244847  CLST      42              1.0000000000
       208        42  DCM       H2             -1.0478030072      -10.8866725083        3.6742253558  CLST      42              1.0000000000
       209        42  DCM       CL1            -1.3970313796      -10.2514943085        1.3951588041  CLST      42              1.0000000000
       210        42  DCM       CL2            -3.3083046318      -11.5244268292        3.2028840035  CLST      42              1.0000000000
       211        43  DCM       C               0.7672768669       -6.8325311649       -2.9156148901  CLST      43              1.0000000000
       212        43  DCM       H1              0.0181399097       -7.6007261245       -2.6308242162  CLST      43              1.0000000000
       213        43  DCM       H2              1.6844303541       -6.9290357507       -2.2983142812  CLST      43              1.0000000000
       214        43  DCM       CL1             1.1969844234       -7.0367867602       -4.6361233556  CLST      43              1.0000000000
       215        43  DCM       CL2             0.0678871061       -5.2110342244       -2.6644261380  CLST      43              1.0000000000
       216        44  DCM       C               5.3389674689        9.4100780801        9.1311527711  CLST      44              1.0000000000
       217        44  DCM       H1              4.7247344825        9.3339767392       10.0531759220  CLST      44              1.0000000000
       218        44  DCM       H2              5.8521390254       10.3931564466        9.0728801964  CLST      44              1.0000000000
       219        44  DCM       CL1             6.5674046574        8.1120784104        9.1405986575  CLST      44              1.0000000000
       220        44  DCM       CL2             4.2764405462        9.2238661096        7.7069338330  CLST      44              1.0000000000
       221        45  DCM       C               3.3178097679        6.7374242479        1.4425105889  CLST      45              1.0000000000
       222        45  DCM       H1              3.0545650572        7.3884965932        2.3017941893  CLST      45              1.0000000000
       223        45  DCM       H2              4.4188435047        6.6259434699        1.3498327071  CLST      45              1.0000000000
       224        45  DCM       CL1             2.5903006872        5.1243947098        1.6888854322  CLST      45              1.0000000000
       225        45  DCM       CL2             2.6756226615        7.4690456576       -0.0553156352  CLST      45              1.0000000000
       226        46  DCM       C               8.4647068180       -8.4200886770        0.7916287516  CLST      46              1.0000000000
       227        46  DCM       H1              7.7058192953       -7.9763311139        1.4696559883  CLST      46              1.0000000000
       228        46  DCM       H2              9.1475739133       -7.6401043776        0.3933474547  CLST      46              1.0000000000
       229        46  DCM       CL1             9.4196729067       -9.6196344888        1.7096485147  CLST      46              1.0000000000
       230        46  DCM       CL2             7.6313475782       -9.2187584277       -0.5751694662  CLST      46              1.0000000000
       231        47  DCM       C              -9.9976631898        7.6967116128      -13.0692123371  CLST      47              1.0000000000
       232        47  DCM       H1            -10.1964482504        6.9342984912      -12.2869514589  CLST      47              1.0000000000
       233        47  DCM       H2            -10.6235272241        8.6005851380      -12.9121278451  CLST      47              1.0000000000
       234        47  DCM       CL1            -8.2728330547        8.1619600255      -13.0056162959  CLST      47              1.0000000000
       235        47  DCM       CL2           -10.3781563080        6.9961314792      -14.6689582990  CLST      47              1.0000000000
       236        48  DCM       C               0.6975153345        2.5793322333      -10.1522427971  CLST      48              1.0000000000
       237        48  DCM       H1              0.9794786310        2.2352547862       -9.1353744570  CLST      48              1.0000000000
       238        48  DCM       H2             -0.1426054873        1.9763498471      -10.5570020273  CLST      48              1.0000000000
       239        48  DCM       CL1             0.1986129861        4.2943181710      -10.0654312914  CLST      48              1.0000000000
       240        48  DCM       CL2             2.1134624903        2.4114641237      -11.2306483410  CLST      48              1.0000000000
       241        49  DCM       C               5.5209758471       -2.5748301339      -11.4818291534  CLST      49              1.0000000000
       242        49  DCM       H1              5.5688321632       -2.7309964091      -12.5801871101  CLST      49              1.0000000000
       243        49  DCM       H2              5.5461265131       -3.5435902830      -10.9395181714  CLST      49              1.0000000000
       244        49  DCM       CL1             6.9262175436       -1.5946633574      -10.9744230305  CLST      49              1.0000000000
       245        49  DCM       CL2             4.0041442105       -1.7163907469      -11.0801354317  CLST      49              1.0000000000
       246        50  DCM       C              -0.1165858681        4.2547586204        4.5360418545  CLST      50              1.0000000000
       247        50  DCM       H1              0.1364104068        5.1054197426        3.8686671717  CLST      50              1.0000000000
       248        50  DCM       H2             -1.1670385880        3.9283500229        4.3829033964  CLST      50              1.0000000000
       249        50  DCM       CL1             0.9784893394        2.8903152650        4.1809884599  CLST      50              1.0000000000
       250        50  DCM       CL2             0.0954655638        4.7621004005        6.2351943936  CLST      50              1.0000000000
       251        51  DCM       C               5.2713320627       -3.1637137842       -7.7113546925  CLST      51              1.0000000000
       252        51  DCM       H1              4.9600724722       -3.0249726806       -6.6558239368  CLST      51              1.0000000000
       253        51  DCM       H2              5.0293092848       -2.2646201688       -8.3162599823  CLST      51              1.0000000000
       254        51  DCM       CL1             7.0345153226       -3.4445502039       -7.7602537876  CLST      51              1.0000000000
       255        51  DCM       CL2             4.4128400930       -4.5796526038       -8.3832201387  CLST      51              1.0000000000
       256        52  DCM       C              -0.5014508621       -3.0530528233        2.9436892196  CLST      52              1.0000000000
       257        52  DCM       H1             -1.3059028954       -3.1283383065        2.1832120123  CLST      52              1.0000000000
       258        52  DCM       H2             -0.8335944276       -3.4661443968        3.9177486634  CLST      52              1.0000000000
       259        52  DCM       CL1             0.9154019139       -3.9833492701        2.3801446189  CLST      52              1.0000000000
       260        52  DCM       CL2            -0.0679581369       -1.3341872691        3.1608250509  CLST      52              1.0000000000
       261        53  DCM       C               3.8845943494       -4.7000120872       -4.3200606492  CLST      53              1.0000000000
       262        53  DCM       H1              3.4457486172       -4.7486269130       -5.3392574568  CLST      53              1.0000000000
       263        53  DCM       H2              3.5134726447       -5.5317264329       -3.6875040553  CLST      53              1.0000000000
       264        53  DCM       CL1             3.4297747583       -3.1533505684       -3.5493303412  CLST      53              1.0000000000
       265        53  DCM       CL2             5.6633881371       -4.8172982719       -4.4451631686  CLST      53              1.0000000000
       266        54  DCM       C             -13.3384686003        6.1083434211      -10.5376934244  CLST      54              1.0000000000
       267        54  DCM       H1            -13.6481604837        5.0870466641      -10.8442858246  CLST      54              1.0000000000
       268        54  DCM       H2            -14.0293345907        6.5230870163       -9.7735762733  CLST      54              1.0000000000
       269        54  DCM       CL1           -11.6885942223        6.0359596246       -9.8522781158  CLST      54              1.0000000000
       270        54  DCM       CL2           -13.3532197207        7.1718492709      -11.9743543527  CLST      54              1.0000000000
       271        55  DCM       C              -1.4511739934        1.7268791512        0.9212461483  CLST      55              1.0000000000
       272        55  DCM       H1             -2.2732894961        2.0136032610        0.2322109684  CLST      55              1.0000000000
       273        55  DCM       H2             -1.0085342026        0.7500855067        0.6348075984  CLST      55              1.0000000000
       274        55  DCM       CL1            -0.1811373272        2.9806299848        0.8474106357  CLST      55              1.0000000000
       275        55  DCM       CL2            -2.0992660902        1.6029421248        2.5825633515  CLST      55              1.0000000000
       276        56  DCM       C               7.1510273567        4.4694728655       -5.9695660610  CLST      56              1.0000000000
       277        56  DCM       H1              6.6094777149        4.1188271607       -5.0669787792  CLST      56              1.0000000000
       278        56  DCM       H2              6.9137156139        5.5318930095       -6.1842567627  CLST      56              1.0000000000
       279        56  DCM       CL1             8.9085531213        4.2936063959       -5.7041647074  CLST      56              1.0000000000
       280        56  DCM       CL2             6.6588587868        3.4712761918       -7.3630653317  CLST      56              1.0000000000
       281        57  DCM       C             -11.2310472349       -4.2724809775      -10.4303170320  CLST      57              1.0000000000
       282        57  DCM       H1            -11.4127410424       -5.3681796233      -10.4235024421  CLST      57              1.0000000000
       283        57  DCM       H2            -12.0199231863       -3.7342164852       -9.8637083518  CLST      57              1.0000000000
       284        57  DCM       CL1            -9.6438894007       -3.9387674736       -9.6773446075  CLST      57              1.0000000000
       285        57  DCM       CL2           -11.2316025829       -3.6937263717      -12.1218843136  CLST      57              1.0000000000
       286        58  DCM       C               5.5265905746        7.7592151146       -2.3500069620  CLST      58              1.0000000000
       287        58  DCM       H1              4.4883308016        7.4766558844       -2.6249135364  CLST      58              1.0000000000
       288        58  DCM       H2              5.5556595561        8.7698166503       -1.8902373035  CLST      58              1.0000000000
       289        58  DCM       CL1             6.1576425772        6.5680916510       -1.1764394269  CLST      58              1.0000000000
       290        58  DCM       CL2             6.5433538707        7.7576479990       -3.8204852791  CLST      58              1.0000000000
       291        59  DCM       C               0.7484784285       -2.2209027054       -0.8262970767  CLST      59              1.0000000000
       292        59  DCM       H1              0.9928744485       -2.1223097211       -1.9039748608  CLST      59              1.0000000000
       293        59  DCM       H2              0.9871727277       -3.2383798281       -0.4563298923  CLST      59              1.0000000000
       294        59  DCM       CL1             1.6978870443       -1.0199581008        0.0946431968  CLST      59              1.0000000000
       295        59  DCM       CL2            -0.9963941872       -1.9319337315       -0.5875392916  CLST      59              1.0000000000
       296        60  DCM       C               4.7084326431       -4.1285680933        7.7848069496  CLST      60              1.0000000000
       297        60  DCM       H1              4.9999744753       -3.2150682384        8.3426777860  CLST      60              1.0000000000
       298        60  DCM       H2              3.6104220984       -4.1685641666        7.6271830994  CLST      60              1.0000000000
       299        60  DCM       CL1             5.5194088597       -4.1213083911        6.1964520148  CLST      60              1.0000000000
       300        60  DCM       CL2             5.2214700540       -5.5641734218        8.7154600945  CLST      60              1.0000000000
       301        61  DCM       C               9.4480796809        1.2412420696       -8.5453316478  CLST      61              1.0000000000
       302        61  DCM       H1             10.4596595469        0.8301488894       -8.3440884579  CLST      61              1.0000000000
       303        61  DCM       H2              9.3162769055        2.2309031692       -8.0592376741  CLST      61              1.0000000000
       304        61  DCM       CL1             8.2237455886        0.1092638988       -7.9021904873  CLST      61              1.0000000000
       305        61  DCM       CL2             9.2354026914        1.4254168685      -10.3110211711  CLST      61              1.0000000000
       306        62  DCM       C               1.0033864475       -4.0391475985       -9.9939445262  CLST      62              1.0000000000
       307        62  DCM       H1              2.0318282729       -3.6898890617       -9.7661555919  CLST      62              1.0000000000
       308        62  DCM       H2              0.9313387796       -4.4198773347      -11.0344320585  CLST      62              1.0000000000
       309        62  DCM       CL1             0.5685128797       -5.3525581935       -8.8594748672  CLST      62              1.0000000000
       310        62  DCM       CL2            -0.1203448327       -2.6631534590       -9.7989005077  CLST      62              1.0000000000
       311        63  DCM       C               5.7033670704        0.8487867966        9.2176937807  CLST      63              1.0000000000
       312        63  DCM       H1              5.7969548414        0.8575212074        8.1116413331  CLST      63              1.0000000000
       313        63  DCM       H2              5.0334351821        1.6610442025        9.5680877567  CLST      63              1.0000000000
       314        63  DCM       CL1             7.3211998653        1.0786286111        9.9406090166  CLST      63              1.0000000000
       315        63  DCM       CL2             5.0242809641       -0.7203683746        9.7306474290  CLST      63              1.0000000000
       316        64  DCM       C              -2.7302809336       -5.9726818920        4.4019636815  CLST      64              1.0000000000
       317        64  DCM       H1             -3.4642680339       -6.7838741618        4.5881221161  CLST      64              1.0000000000
       318        64  DCM       H2             -2.3761754763       -5.5281331355        5.3549367476  CLST      64              1.0000000000
       319        64  DCM       CL1            -1.3312988328       -6.6440139827        3.5204111875  CLST      64              1.0000000000
       320        64  DCM       CL2            -3.5107406806       -4.7034751844        3.4181849791  CLST      64              1.0000000000
       321        65  DCM       C              -7.6808716237       -0.6590199047        9.2363083520  CLST      65              1.0000000000
       322        65  DCM       H1             -8.3993994152       -1.4880740229        9.4099990972  CLST      65              1.0000000000
       323        65  DCM       H2             -6.6982102086       -0.8792635526        9.7044767294  CLST      65              1.0000000000
       324        65  DCM       CL1            -7.4502971067       -0.4466098155        7.4771964776  CLST      65              1.0000000000
       325        65  DCM       CL2            -8.3393345824        0.8449016496        9.9437387653  CLST      65              1.0000000000
       326        66  DCM       C              -7.2439058877       10.2819595037       10.5835981722  CLST      66              1.0000000000
       327        66  DCM       H1             -6.2776709446       10.8060680678       10.7417602204  CLST      66              1.0000000000
       328        66  DCM       H2             -7.5215184220       10.2717195326        9.5092926308  CLST      66              1.0000000000
       329        66  DCM       CL1            -7.0920395140        8.5956749592       11.1566827141  CLST      66              1.0000000000
       330        66  DCM       CL2            -8.5238298062       11.1256798992       11.5020208542  CLST      66              1.0000000000
       331        67  DCM       C              -0.3982795020        5.5370919292       -1.7137129820  CLST      67              1.0000000000
       332        67  DCM       H1              0.5448544866        5.0787452936       -1.3475022685  CLST      67              1.0000000000
       333        67  DCM       H2             -1.1370541744        5.6295214480       -0.8910489288  CLST      67              1.0000000000
       334        67  DCM       CL1            -0.0431466847        7.1612433782       -2.3679418986  CLST      67              1.0000000000
       335        67  DCM       CL2            -1.0977579807        4.5140445585       -3.0000860407  CLST      67              1.0000000000
       336        68  DCM       C               7.7434399722        1.7313232447       -2.7917557097  CLST      68              1.0000000000
       337        68  DCM       H1              8.7954731923        2.0847546835       -2.7625110050  CLST      68              1.0000000000
       338        68  DCM       H2              7.5786899412        0.9009381114       -2.0731838446  CLST      68              1.0000000000
       339        68  DCM       CL1             6.6615200788        3.0899352645       -2.3699476802  CLST      68              1.0000000000
       340        68  DCM       CL2             7.3764782927        1.1518451434       -4.4415310336  CLST      68              1.0000000000
       341        69  DCM       C               2.7701244886        4.6051415896       -4.0339079811  CLST      69              1.0000000000
       342        69  DCM       H1              2.7767618250        3.5976940084       -4.5020537351  CLST      69              1.0000000000
       343        69  DCM       H2              1.7538644319        5.0507645005       -4.0587704132  CLST      69              1.0000000000
       344        69  DCM       CL1             3.2974986160        4.4638548015       -2.3319333541  CLST      69              1.0000000000
       345        69  DCM       CL2             3.8902256208        5.6694964693       -4.9290365457  CLST      69              1.0000000000
       346        70  DCM       C               2.2340163865        3.2788855751       10.5574965457  CLST      70              1.0000000000
       347        70  DCM       H1              2.3002021957        3.6787592178       11.5915523850  CLST      70              1.0000000000
       348        70  DCM       H2              3.1227203436        3.5732245592        9.9606560417  CLST      70              1.0000000000
       349        70  DCM       CL1             2.1360631836        1.4945604224       10.6258342377  CLST      70              1.0000000000
       350        70  DCM       CL2             0.7693081055        3.9352856385        9.7718164841  CLST      70              1.0000000000
       351        71  DCM       C              -9.0297304046       -8.8590355119       -9.1753361490  CLST      71              1.0000000000
       352        71  DCM       H1             -8.2213767525       -8.4581663636       -9.8217963927  CLST      71              1.0000000000
       353        71  DCM       H2             -8.6135392409       -9.3133834678       -8.2516080823  CLST      71              1.0000000000
       354        71  DCM       CL1           -10.1275593260       -7.5231873687       -8.7242867980  CLST      71              1.0000000000
       355        71  DCM       CL2            -9.9317074364      -10.1067452284      -10.0824289725  CLST      71              1.0000000000
       356        72  DCM       C              -7.8878120954       -1.7353845103        1.1616845183  CLST      72              1.0000000000
       357        72  DCM       H1             -7.3461730586       -2.3218492287        0.3899721759  CLST      72              1.0000000000
       358        72  DCM       H2             -7.3428184743       -1.7452834213        2.1285167712  CLST      72              1.0000000000
       359        72  DCM       CL1            -8.0440611734       -0.0443759620        0.6057310634  CLST      72              1.0000000000
       360        72  DCM       CL2            -9.5064259857       -2.4540531248        1.4023890899  CLST      72              1.0000000000
       361        73  DCM       C               8.0209653396        5.1219410865      -10.1756481161  CLST      73              1.0000000000
       362        73  DCM       H1              7.3143377841        5.7175292382       -9.5615435377  CLST      73              1.0000000000
       363        73  DCM       H2              7.6285685287        4.0991855209      -10.3577647081  CLST      73              1.0000000000
       364        73  DCM       CL1             8.2602756164        5.9441633003      -11.7433986695  CLST      73              1.0000000000
       365        73  DCM       CL2             9.5796513633        5.0047887580       -9.3096318278  CLST      73              1.0000000000
       366        74  DCM       C              -5.1767983975       -9.1873836928        0.8571569208  CLST      74              1.0000000000
       367        74  DCM       H1             -4.4737518504      -10.0372700359        0.7248498220  CLST      74              1.0000000000
       368        74  DCM       H2             -5.3693864205       -8.6751665260       -0.1091679380  CLST      74              1.0000000000
       369        74  DCM       CL1            -4.4626972929       -8.0175242798        2.0023851918  CLST      74              1.0000000000
       370        74  DCM       CL2            -6.7230746165       -9.8010760313        1.5090567288  CLST      74              1.0000000000
       371        75  DCM       C              -3.0294679224       -6.1179534390       -0.7473922321  CLST      75              1.0000000000
       372        75  DCM       H1             -3.1118911225       -5.5716346184       -1.7089342678  CLST      75              1.0000000000
       373        75  DCM       H2             -4.0008439027       -6.1308577259       -0.2111562483  CLST      75              1.0000000000
       374        75  DCM       CL1            -2.5100029379       -7.7968033300       -1.0700045082  CLST      75              1.0000000000
       375        75  DCM       CL2            -1.8203520681       -5.2994823849        0.2771783500  CLST      75              1.0000000000
       376        76  DCM       C               3.7724101368        5.3795354858        5.3796536875  CLST      76              1.0000000000
       377        76  DCM       H1              2.8481374620        5.3556605645        4.7651997391  CLST      76              1.0000000000
       378        76  DCM       H2              4.2689083923        4.3874646548        5.3863939189  CLST      76              1.0000000000
       379        76  DCM       CL1             4.8990779175        6.5894933363        4.7018986815  CLST      76              1.0000000000
       380        76  DCM       CL2             3.3457842372        5.8275333871        7.0553255839  CLST      76              1.0000000000
       381        77  DCM       C               9.0296618540       -5.6517780836        6.9540701029  CLST      77              1.0000000000
       382        77  DCM       H1              9.2510525172       -6.0034398681        5.9246754981  CLST      77              1.0000000000
       383        77  DCM       H2              8.1988208696       -4.9164560721        6.9568512262  CLST      77              1.0000000000
       384        77  DCM       CL1             8.5651020435       -7.0525547635        7.9615397151  CLST      77              1.0000000000
       385        77  DCM       CL2            10.4908054120       -4.8726104106        7.6257324869  CLST      77              1.0000000000
       386        78  DCM       C               4.0068019271       -9.5599621324       -1.7070314352  CLST      78              1.0000000000
       387        78  DCM       H1              4.2686249831       -9.3005686170       -0.6594768409  CLST      78              1.0000000000
       388        78  DCM       H2              4.5761171428      -10.4501308076       -2.0489494485  CLST      78              1.0000000000
       389        78  DCM       CL1             2.2578533513       -9.9162419159       -1.7999261551  CLST      78              1.0000000000
       390        78  DCM       CL2             4.4004180589       -8.1774555432       -2.7679148206  CLST      78              1.0000000000
       391        79  DCM       C             -10.8351148736        3.3476474657        7.1692420409  CLST      79              1.0000000000
       392        79  DCM       H1            -11.6126532821        2.7872381910        6.6089296035  CLST      79              1.0000000000
       393        79  DCM       H2            -10.8364161457        4.4213101383        6.8860208076  CLST      79              1.0000000000
       394        79  DCM       CL1           -11.1666785578        3.2089609452        8.9197509192  CLST      79              1.0000000000
       395        79  DCM       CL2            -9.2311015339        2.6499743804        6.7994367207  CLST      79              1.0000000000
       396        80  DCM       C             -11.2119069472        2.7120796731      -11.6235232424  CLST      80              1.0000000000
       397        80  DCM       H1            -10.5761253013        3.1775048587      -10.8410781013  CLST      80              1.0000000000
       398        80  DCM       H2            -10.7206727529        1.8135745585      -12.0536315783  CLST      80              1.0000000000
       399        80  DCM       CL1           -12.7711589981        2.2319282891      -10.8932248236  CLST      80              1.0000000000
       400        80  DCM       CL2           -11.4932453845        3.9013801548      -12.9285422286  CLST      80              1.0000000000
       401        81  DCM       C              -7.1568184703       12.0291028707        5.4657293599  CLST      81              1.0000000000
       402        81  DCM       H1             -8.0496516815       11.4310238450        5.1851576251  CLST      81              1.0000000000
       403        81  DCM       H2             -7.1856774899       13.0347871211        4.9953708993  CLST      81              1.0000000000
       404        81  DCM       CL1            -7.1171345208       12.2202352038        7.2432796471  CLST      81              1.0000000000
       405        81  DCM       CL2            -5.6875030176       11.1737076521        4.9133682214  CLST      81              1.0000000000
       406        82  DCM       C               1.5203575181       -2.1945351056        9.7681210657  CLST      82              1.0000000000
       407        82  DCM       H1              2.2941547555       -1.8266941679       10.4748369575  CLST      82              1.0000000000
       408        82  DCM       H2              0.5056060590       -1.8778110525       10.0893705930  CLST      82              1.0000000000
       409        82  DCM       CL1             1.8517578791       -1.5279784313        8.1426048680  CLST      82              1.0000000000
       410        82  DCM       CL2             1.5832797249       -3.9803268786        9.7162946653  CLST      82              1.0000000000
       411        83  DCM       C               5.9500291018      -11.5391264026        1.8290771056  CLST      83              1.0000000000
       412        83  DCM       H1              7.0363382680      -11.4209406425        1.6325172111  CLST      83              1.0000000000
       413        83  DCM       H2              5.7707957180      -12.2175479453        2.6896731706  CLST      83              1.0000000000
       414        83  DCM       CL1             5.1687501231      -12.2238420711        0.3751131916  CLST      83              1.0000000000
       415        83  DCM       CL2             5.2470705984       -9.9377689239        2.1934570542  CLST      83              1.0000000000
       416        84  DCM       C             -10.6304089519        0.4673067065        3.4154563032  CLST      84              1.0000000000
       417        84  DCM       H1            -10.5536724156        0.2606132466        2.3272448398  CLST      84              1.0000000000
       418        84  DCM       H2            -11.4181157886       -0.1585054635        3.8849363705  CLST      84              1.0000000000
       419        84  DCM       CL1            -9.0590840354        0.1064270776        4.1881957734  CLST      84              1.0000000000
       420        84  DCM       CL2           -11.0417150657        2.1904952748        3.6493194490  CLST      84              1.0000000000
       421        85  DCM       C              -4.7751071092      -10.1306341939      -11.7146872499  CLST      85              1.0000000000
       422        85  DCM       H1             -4.9557851293      -10.2079252393      -12.8077046786  CLST      85              1.0000000000
       423        85  DCM       H2             -3.9821697938      -10.8361409367      -11.3876237168  CLST      85              1.0000000000
       424        85  DCM       CL1            -6.2888264008      -10.5204395874      -10.8500980097  CLST      85              1.0000000000
       425        85  DCM       CL2            -4.2691691420       -8.4608824023      -11.3268593600  CLST      85              1.0000000000
       426        86  DCM       C              10.5608811034      -12.2556839834       -0.6111273999  CLST      86              1.0000000000
       427        86  DCM       H1             10.9315874577      -11.9759077458        0.3976618602  CLST      86              1.0000000000
       428        86  DCM       H2             11.1402322194      -13.1058932517       -1.0289486702  CLST      86              1.0000000000
       429        86  DCM       CL1             8.8410607310      -12.7290207031       -0.4873767480  CLST      86              1.0000000000
       430        86  DCM       CL2            10.7273362959      -10.8480160960       -1.7009268139  CLST      86              1.0000000000
       431        87  DCM       C              -0.8046449734        1.6132106613        7.5142387089  CLST      87              1.0000000000
       432        87  DCM       H1             -1.5059425403        2.4731554080        7.4687072474  CLST      87              1.0000000000
       433        87  DCM       H2              0.2494551814        1.9602152267        7.5102939326  CLST      87              1.0000000000
       434        87  DCM       CL1            -1.1075522202        0.6954111140        9.0172248779  CLST      87              1.0000000000
       435        87  DCM       CL2            -1.0729908420        0.5643883529        6.0935026044  CLST      87              1.0000000000
       436        88  DCM       C              -9.3271934564       -3.4339267717        5.3032631978  CLST      88              1.0000000000
       437        88  DCM       H1             -9.1272972132       -3.0314608375        6.3186988219  CLST      88              1.0000000000
       438        88  DCM       H2             -8.5992247944       -3.0349898294        4.5655456665  CLST      88              1.0000000000
       439        88  DCM       CL1           -10.9768079903       -2.9654012283        4.8019446805  CLST      88              1.0000000000
       440        88  DCM       CL2            -9.2018128855       -5.2156225957        5.3458645148  CLST      88              1.0000000000
       441        89  DCM       C               3.3365355222        0.9523118836        6.0377265098  CLST      89              1.0000000000
       442        89  DCM       H1              3.8993591582        0.1243038101        6.5181691728  CLST      89              1.0000000000
       443        89  DCM       H2              2.3343753900        0.6104955553        5.7006900032  CLST      89              1.0000000000
       444        89  DCM       CL1             3.1272007398        2.2732130732        7.2183161149  CLST      89              1.0000000000
       445        89  DCM       CL2             4.2591286918        1.5415565406        4.6247842263  CLST      89              1.0000000000
       446        90  DCM       C               3.9064591138        4.9676928631       -9.2168156663  CLST      90              1.0000000000
       447        90  DCM       H1              4.6703051036        4.3505302623       -9.7334407661  CLST      90              1.0000000000
       448        90  DCM       H2              3.1298531455        5.3135619644       -9.9306364345  CLST      90              1.0000000000
       449        90  DCM       CL1             3.1287313548        3.9941865600       -7.9396016977  CLST      90              1.0000000000
       450        90  DCM       CL2             4.7060562756        6.3835573900       -8.4806530737  CLST      90              1.0000000000
       451        91  DCM       C              -1.9708444865       -2.5210596534        7.8687419539  CLST      91              1.0000000000
       452        91  DCM       H1             -2.6947991306       -1.8661738905        8.3978252055  CLST      91              1.0000000000
       453        91  DCM       H2             -0.9537174266       -2.0789812754        7.8704321235  CLST      91              1.0000000000
       454        91  DCM       CL1            -1.9137903377       -4.1084602364        8.6856329452  CLST      91              1.0000000000
       455        91  DCM       CL2            -2.5009801065       -2.7222109283        6.1765420307  CLST      91              1.0000000000
       456        92  DCM       C              -3.0017317602       -6.6566214587       -4.6069821204  CLST      92              1.0000000000
       457        92  DCM       H1             -2.3575447926       -6.9887025542       -3.7678870919  CLST      92              1.0000000000
       458        92  DCM       H2             -3.7875355117       -5.9521466553       -4.2623625643  CLST      92              1.0000000000
       459        92  DCM       CL1            -1.9760177755       -5.8394387001       -5.8161689277  CLST      92              1.0000000000
       460        92  DCM       CL2            -3.7857172912       -8.0851768561       -5.3360745559  CLST      92              1.0000000000
       461        93  DCM       C             -10.4988366624        9.7772400098        8.4464559696  CLST      93              1.0000000000
       462        93  DCM       H1            -10.1782905908       10.7225570404        8.9332240707  CLST      93              1.0000000000
       463        93  DCM       H2            -11.5094005484        9.8805245837        7.9977976506  CLST      93              1.0000000000
       464        93  DCM       CL1            -9.3311124902        9.3595776631        7.1604662428  CLST      93              1.0000000000
       465        93  DCM       CL2           -10.5387726302        8.4766602438        9.6712864675  CLST      93              1.0000000000
       466        94  DCM       C              -5.8268707656       -7.0338408664       -8.2949468079  CLST      94              1.0000000000
       467        94  DCM       H1             -5.8072773099       -8.0685794662       -8.6954067379  CLST      94              1.0000000000
       468        94  DCM       H2             -4.8109048678       -6.7032202130       -7.9923293378  CLST      94              1.0000000000
       469        94  DCM       CL1            -6.4452584857       -5.9363723585       -9.5620030486  CLST      94              1.0000000000
       470        94  DCM       CL2            -6.9032784105       -6.9796390561       -6.8694773967  CLST      94              1.0000000000
       471        95  DCM       C              -7.6448618127       -5.8922694024        1.6307896773  CLST      95              1.0000000000
       472        95  DCM       H1             -7.4790424268       -6.9150507469        2.0299575010  CLST      95              1.0000000000
       473        95  DCM       H2             -8.7286316732       -5.6563782999        1.5727117398  CLST      95              1.0000000000
       474        95  DCM       CL1            -6.8525917582       -4.7139213943        2.7131168993  CLST      95              1.0000000000
       475        95  DCM       CL2            -6.9322333979       -5.7810271747       -0.0046393482  CLST      95              1.0000000000
