* EXECUTING CHARMM SCRIPT FROM PYTHON
*  DATE:     4/29/26     11:27:25      CREATED BY USER: aydin
*
        24  EXT
         1         1  BENZ      CG             -8.4362220626      -46.7450268931       36.0031428186  SYS       1               0.0000000000
         2         1  BENZ      HG             -7.7170212843      -47.2679344148       36.6161011894  SYS       1               0.0000000000
         3         1  BENZ      CD1            -9.5839489731      -46.5266609384       36.7412157265  SYS       1               0.0000000000
         4         1  BENZ      HD1            -9.4066012234      -46.5880926447       37.8047823305  SYS       1               0.0000000000
         5         1  BENZ      CD2            -8.3681690629      -46.6753990826       34.6360216627  SYS       1               0.0000000000
         6         1  BENZ      HD2            -7.5093857127      -46.9324158410       34.0336650047  SYS       1               0.0000000000
         7         1  BENZ      CE1           -10.7019068195      -45.9876476470       35.9991252712  SYS       1               0.0000000000
         8         1  BENZ      HE1           -11.5719051422      -45.6602813836       36.5489745671  SYS       1               0.0000000000
         9         1  BENZ      CE2            -9.5060148119      -46.2343774400       33.9275464513  SYS       1               0.0000000000
        10         1  BENZ      HE2            -9.4661132950      -46.1368065499       32.8527033045  SYS       1               0.0000000000
        11         1  BENZ      CZ            -10.5977919001      -45.8216060197       34.6218199055  SYS       1               0.0000000000
        12         1  BENZ      HZ            -11.3667423227      -45.2166765653       34.1644627118  SYS       1               0.0000000000
        13         2  BENZ      CG              3.3194223987       50.2637622640      -35.5371104026  SYS       2               0.0000000000
        14         2  BENZ      HG              2.5231047404       49.9972021191      -34.8579757501  SYS       2               0.0000000000
        15         2  BENZ      CD1             4.0447157160       51.4745058552      -35.3893681254  SYS       2               0.0000000000
        16         2  BENZ      HD1             3.6559754455       52.2091454062      -34.6997408839  SYS       2               0.0000000000
        17         2  BENZ      CD2             3.7152037370       49.2918480533      -36.5132556678  SYS       2               0.0000000000
        18         2  BENZ      HD2             3.0293106073       48.4670670073      -36.6385027859  SYS       2               0.0000000000
        19         2  BENZ      CE1             5.1083498728       51.6995024330      -36.2861614118  SYS       2               0.0000000000
        20         2  BENZ      HE1             5.5984411219       52.6618066081      -36.2996240299  SYS       2               0.0000000000
        21         2  BENZ      CE2             4.7682743699       49.5846506543      -37.3904437056  SYS       2               0.0000000000
        22         2  BENZ      HE2             5.0844238830       48.9494082703      -38.2046406099  SYS       2               0.0000000000
        23         2  BENZ      CZ              5.4925446330       50.7900679775      -37.2574047510  SYS       2               0.0000000000
        24         2  BENZ      HZ              6.2757870897       51.0151359130      -37.9661188532  SYS       2               0.0000000000
