PSF EXT CMAP XPLOR

         2 !NTITLE
* GENERATE LIGAND                                                               
*  DATE:     4/20/26      5:35: 4      CREATED BY USER: charmm-gui              

        24 !NATOM
         1 BENZ     1        BENZ     C1       CG2R61  -0.116000       12.0110           0
         2 BENZ     1        BENZ     C2       CG2R61  -0.116000       12.0110           0
         3 BENZ     1        BENZ     C3       CG2R61  -0.116000       12.0110           0
         4 BENZ     1        BENZ     C4       CG2R61  -0.116000       12.0110           0
         5 BENZ     1        BENZ     C5       CG2R61  -0.116000       12.0110           0
         6 BENZ     1        BENZ     C6       CG2R61  -0.116000       12.0110           0
         7 BENZ     1        BENZ     C7       CG2R61  -0.116000       12.0110           0
         8 BENZ     1        BENZ     C8       CG2R61  -0.116000       12.0110           0
         9 BENZ     1        BENZ     C9       CG2R61  -0.116000       12.0110           0
        10 BENZ     1        BENZ     C10      CG2R61  -0.116000       12.0110           0
        11 BENZ     1        BENZ     C11      CG2R61  -0.116000       12.0110           0
        12 BENZ     1        BENZ     C12      CG2R61  -0.116000       12.0110           0
        13 BENZ     1        BENZ     H1       HGR61    0.116000       1.00800           0
        14 BENZ     1        BENZ     H2       HGR61    0.116000       1.00800           0
        15 BENZ     1        BENZ     H3       HGR61    0.116000       1.00800           0
        16 BENZ     1        BENZ     H4       HGR61    0.116000       1.00800           0
        17 BENZ     1        BENZ     H5       HGR61    0.116000       1.00800           0
        18 BENZ     1        BENZ     H6       HGR61    0.116000       1.00800           0
        19 BENZ     1        BENZ     H7       HGR61    0.116000       1.00800           0
        20 BENZ     1        BENZ     H8       HGR61    0.116000       1.00800           0
        21 BENZ     1        BENZ     H9       HGR61    0.116000       1.00800           0
        22 BENZ     1        BENZ     H10      HGR61    0.116000       1.00800           0
        23 BENZ     1        BENZ     H11      HGR61    0.116000       1.00800           0
        24 BENZ     1        BENZ     H12      HGR61    0.116000       1.00800           0

        24 !NBOND: bonds
         1         2         2         3         3         4         4         5
         5         6         6         1         7         8         8         9
         9        10        10        11        11        12        12         7
         1        13         2        14         3        15         4        16
         5        17         6        18         7        19         8        20
         9        21        10        22        11        23        12        24

        36 !NTHETA: angles
         2         1         6         2         1        13         6         1        13
         1         2         3         1         2        14         3         2        14
         2         3         4         2         3        15         4         3        15
         3         4         5         3         4        16         5         4        16
         4         5         6         4         5        17         6         5        17
         1         6         5         1         6        18         5         6        18
         8         7        12         8         7        19        12         7        19
         7         8         9         7         8        20         9         8        20
         8         9        10         8         9        21        10         9        21
         9        10        11         9        10        22        11        10        22
        10        11        12        10        11        23        12        11        23
         7        12        11         7        12        24        11        12        24

        48 !NPHI: dihedrals
         1         2         3         4         1         2         3        15
         1         6         5         4         1         6         5        17
         2         1         6         5         2         1         6        18
         2         3         4         5         2         3         4        16
         3         2         1         6         3         2         1        13
         3         4         5         6         3         4         5        17
         4         3         2        14         4         5         6        18
         5         4         3        15         5         6         1        13
         6         1         2        14         6         5         4        16
         7         8         9        10         7         8         9        21
         7        12        11        10         7        12        11        23
         8         7        12        11         8         7        12        24
         8         9        10        11         8         9        10        22
         9         8         7        12         9         8         7        19
         9        10        11        12         9        10        11        23
        10         9         8        20        10        11        12        24
        11        10         9        21        11        12         7        19
        12         7         8        20        12        11        10        22
        13         1         2        14        13         1         6        18
        14         2         3        15        15         3         4        16
        16         4         5        17        17         5         6        18
        19         7         8        20        19         7        12        24
        20         8         9        21        21         9        10        22
        22        10        11        23        23        11        12        24

         0 !NIMPHI: impropers


         0 !NDON: donors


         0 !NACC: acceptors


         0 !NNB

         0         0         0         0         0         0         0         0
         0         0         0         0         0         0         0         0
         0         0         0         0         0         0         0         0

         1         0 !NGRP NST2
         0         1         0

         0         0 !NUMLP NUMLPH

         0 !NCRTERM: cross-terms

