* INITIAL
*  DATE:     6/28/26      1:58:51      CREATED BY USER: boittier
*
       475  EXT
         1         1  DCM       C             -10.2411713217       -1.5154638467      -17.7689140155  CLST      1               1.0000000000
         2         1  DCM       H1            -10.5720454655       -1.6198718327      -16.7139571562  CLST      1               1.0000000000
         3         1  DCM       H2            -11.0366928161       -1.0602359916      -18.3959910495  CLST      1               1.0000000000
         4         1  DCM       CL1            -8.7901180523       -0.4721990005      -17.8227070549  CLST      1               1.0000000000
         5         1  DCM       CL2            -9.8492922119       -3.1347620676      -18.4165644749  CLST      1               1.0000000000
         6         2  DCM       C               0.8265834156      -13.2899932974        4.8374000232  CLST      2               1.0000000000
         7         2  DCM       H1              1.5581607371      -14.0131065429        4.4191804887  CLST      2               1.0000000000
         8         2  DCM       H2              0.2021722604      -12.8421923140        4.0362221051  CLST      2               1.0000000000
         9         2  DCM       CL1            -0.2343725202      -14.1417831953        5.9974344002  CLST      2               1.0000000000
        10         2  DCM       CL2             1.7157619712      -11.9882783288        5.6790350679  CLST      2               1.0000000000
        11         3  DCM       C               0.3268930539        7.1104477046       -0.3398347980  CLST      3               1.0000000000
        12         3  DCM       H1              1.3329656297        7.2348652559       -0.7951529648  CLST      3               1.0000000000
        13         3  DCM       H2             -0.2651565864        6.3413705704       -0.8801715264  CLST      3               1.0000000000
        14         3  DCM       CL1             0.5185777911        6.6059397291        1.3634301457  CLST      3               1.0000000000
        15         3  DCM       CL2            -0.5430536773        8.6686716145       -0.4146505005  CLST      3               1.0000000000
        16         4  DCM       C              -1.5824795452       -4.7662006791        1.8846806917  CLST      4               1.0000000000
        17         4  DCM       H1             -1.4536949704       -3.7779217877        2.3744509018  CLST      4               1.0000000000
        18         4  DCM       H2             -2.5687379927       -5.2083723782        2.1330604885  CLST      4               1.0000000000
        19         4  DCM       CL1            -1.4685367514       -4.5621260653        0.1132895865  CLST      4               1.0000000000
        20         4  DCM       CL2            -0.2941134292       -5.8676637082        2.4470086260  CLST      4               1.0000000000
        21         5  DCM       C             -12.6018842347       -8.9208025710       -2.5473349023  CLST      5               1.0000000000
        22         5  DCM       H1            -12.9244448799       -9.9723397116       -2.7012862009  CLST      5               1.0000000000
        23         5  DCM       H2            -12.0556821375       -8.8092998121       -1.5881110483  CLST      5               1.0000000000
        24         5  DCM       CL1           -11.5206693364       -8.4388419623       -3.8862130219  CLST      5               1.0000000000
        25         5  DCM       CL2           -14.0449125645       -7.8662117982       -2.5184394039  CLST      5               1.0000000000
        26         6  DCM       C               7.1578086027       -2.6236967888       11.4493115894  CLST      6               1.0000000000
        27         6  DCM       H1              7.2044092297       -2.6814339944       12.5570261581  CLST      6               1.0000000000
        28         6  DCM       H2              8.1782142729       -2.6248727872       11.0074256055  CLST      6               1.0000000000
        29         6  DCM       CL1             6.2511723283       -4.0345051628       10.8292232839  CLST      6               1.0000000000
        30         6  DCM       CL2             6.3225842161       -1.1147886717       10.9788877839  CLST      6               1.0000000000
        31         7  DCM       C             -12.9691931040      -11.1085751045        2.0011742589  CLST      7               1.0000000000
        32         7  DCM       H1            -12.5968549113      -12.0845142264        1.6249726962  CLST      7               1.0000000000
        33         7  DCM       H2            -13.6681157222      -11.2491305893        2.8530422516  CLST      7               1.0000000000
        34         7  DCM       CL1           -11.5777043988      -10.1262269367        2.5459643064  CLST      7               1.0000000000
        35         7  DCM       CL2           -13.8280651391      -10.2657694284        0.6785132351  CLST      7               1.0000000000
        36         8  DCM       C               7.5853278538       -8.5953485978       -0.8978471452  CLST      8               1.0000000000
        37         8  DCM       H1              6.9353970001       -9.4282871885       -1.2418176434  CLST      8               1.0000000000
        38         8  DCM       H2              8.2215587193       -8.2179933085       -1.7262460764  CLST      8               1.0000000000
        39         8  DCM       CL1             6.5581000334       -7.2623264030       -0.2991023897  CLST      8               1.0000000000
        40         8  DCM       CL2             8.6406115998       -9.1803943077        0.4198991987  CLST      8               1.0000000000
        41         9  DCM       C              -5.3950705523       11.1580823096        8.2523308042  CLST      9               1.0000000000
        42         9  DCM       H1             -4.6604909579       10.5634862438        8.8351686139  CLST      9               1.0000000000
        43         9  DCM       H2             -6.1863893621       10.5055226966        7.8269109974  CLST      9               1.0000000000
        44         9  DCM       CL1            -6.1582636995       12.3611326288        9.3309705697  CLST      9               1.0000000000
        45         9  DCM       CL2            -4.5411387419       11.9905447897        6.9209927855  CLST      9               1.0000000000
        46        10  DCM       C               2.1947702221        4.1827774711       -1.1733931452  CLST      10              1.0000000000
        47        10  DCM       H1              2.3411397688        4.5281379459       -0.1277315064  CLST      10              1.0000000000
        48        10  DCM       H2              1.1759331316        4.4249487216       -1.5343387133  CLST      10              1.0000000000
        49        10  DCM       CL1             3.3880966111        4.9948811246       -2.2276038979  CLST      10              1.0000000000
        50        10  DCM       CL2             2.4240632818        2.4114031537       -1.2372489639  CLST      10              1.0000000000
        51        11  DCM       C             -14.5569272701       -7.8898799129        3.5873290023  CLST      11              1.0000000000
        52        11  DCM       H1            -14.2708730982       -6.9491516859        4.1019023125  CLST      11              1.0000000000
        53        11  DCM       H2            -13.7666462558       -8.2044856523        2.8765717228  CLST      11              1.0000000000
        54        11  DCM       CL1           -14.7882555295       -9.1757844582        4.8059748819  CLST      11              1.0000000000
        55        11  DCM       CL2           -16.0761385692       -7.6237032757        2.6855601007  CLST      11              1.0000000000
        56        12  DCM       C               5.2977428025      -10.0087103629        2.1499877430  CLST      12              1.0000000000
        57        12  DCM       H1              6.4026146586      -10.0564580751        2.0660293604  CLST      12              1.0000000000
        58        12  DCM       H2              4.9595998339       -8.9785977617        2.3826450834  CLST      12              1.0000000000
        59        12  DCM       CL1             4.5713700763      -10.5099452746        0.5976426511  CLST      12              1.0000000000
        60        12  DCM       CL2             4.7668301991      -11.1089646388        3.4546881279  CLST      12              1.0000000000
        61        13  DCM       C               9.4189931167        0.3330665560        8.0740832226  CLST      13              1.0000000000
        62        13  DCM       H1             10.0916916263        1.1723565672        7.8002804292  CLST      13              1.0000000000
        63        13  DCM       H2              9.6005392125       -0.5462324070        7.4212616912  CLST      13              1.0000000000
        64        13  DCM       CL1             7.7197119222        0.8599411339        7.8895853467  CLST      13              1.0000000000
        65        13  DCM       CL2             9.7269469743       -0.1303686171        9.7727697331  CLST      13              1.0000000000
        66        14  DCM       C             -10.5135832432        1.2726357683       -7.7378023181  CLST      14              1.0000000000
        67        14  DCM       H1            -10.3297488360        1.6310528319       -8.7727330191  CLST      14              1.0000000000
        68        14  DCM       H2            -11.1932273144        0.3949037099       -7.7313059707  CLST      14              1.0000000000
        69        14  DCM       CL1            -8.9544419102        0.8057176541       -6.9991526087  CLST      14              1.0000000000
        70        14  DCM       CL2           -11.2589248219        2.5922980183       -6.7887432549  CLST      14              1.0000000000
        71        15  DCM       C              -8.3332328816        4.0977535323       -4.8058912677  CLST      15              1.0000000000
        72        15  DCM       H1             -8.7482696419        3.9910129261       -5.8289814363  CLST      15              1.0000000000
        73        15  DCM       H2             -9.1286338540        4.0003460254       -4.0385816107  CLST      15              1.0000000000
        74        15  DCM       CL1            -7.1112185467        2.8211897107       -4.5403234405  CLST      15              1.0000000000
        75        15  DCM       CL2            -7.5692825286        5.7062176195       -4.6527490704  CLST      15              1.0000000000
        76        16  DCM       C               7.2739605498        9.6870933340        0.2255136552  CLST      16              1.0000000000
        77        16  DCM       H1              6.3319024581       10.1958445932        0.5190856928  CLST      16              1.0000000000
        78        16  DCM       H2              7.1621547163        9.1695752414       -0.7494723857  CLST      16              1.0000000000
        79        16  DCM       CL1             8.5774354447       10.9030673703        0.0894131520  CLST      16              1.0000000000
        80        16  DCM       CL2             7.6984000836        8.4829740627        1.4755595710  CLST      16              1.0000000000
        81        17  DCM       C              -5.0161989990       10.7712364026       -8.9182666685  CLST      17              1.0000000000
        82        17  DCM       H1             -5.2355449450       11.3781844082       -9.8213771836  CLST      17              1.0000000000
        83        17  DCM       H2             -5.9270439211       10.2556076139       -8.5529672082  CLST      17              1.0000000000
        84        17  DCM       CL1            -3.7801315997        9.5461516088       -9.3282185481  CLST      17              1.0000000000
        85        17  DCM       CL2            -4.4011455095       11.8460848215       -7.6279910456  CLST      17              1.0000000000
        86        18  DCM       C              -8.1543617981        8.6176456575        2.4114864828  CLST      18              1.0000000000
        87        18  DCM       H1             -7.9457868413        9.4773183007        1.7421824124  CLST      18              1.0000000000
        88        18  DCM       H2             -8.2866717616        8.9511535416        3.4616769956  CLST      18              1.0000000000
        89        18  DCM       CL1            -6.7844920939        7.4717517986        2.3327508677  CLST      18              1.0000000000
        90        18  DCM       CL2            -9.6504640041        7.8052879963        1.8663417170  CLST      18              1.0000000000
        91        19  DCM       C              -8.2656562486        5.1244189119       -0.2013723211  CLST      19              1.0000000000
        92        19  DCM       H1             -9.3668862768        5.2683708103       -0.2083250737  CLST      19              1.0000000000
        93        19  DCM       H2             -7.8740282697        5.0887656620        0.8371961552  CLST      19              1.0000000000
        94        19  DCM       CL1            -7.4985717687        6.4870805720       -1.0655153440  CLST      19              1.0000000000
        95        19  DCM       CL2            -7.8725374215        3.5870562633       -1.0224066045  CLST      19              1.0000000000
        96        20  DCM       C               6.9255209209       -3.5030693986        1.1507022297  CLST      20              1.0000000000
        97        20  DCM       H1              6.7665277395       -2.9282212876        0.2146281916  CLST      20              1.0000000000
        98        20  DCM       H2              6.2001957029       -4.3395364933        1.2312228523  CLST      20              1.0000000000
        99        20  DCM       CL1             8.5853185525       -4.1645180017        1.1591513136  CLST      20              1.0000000000
       100        20  DCM       CL2             6.7110266930       -2.4007194031        2.5389752404  CLST      20              1.0000000000
       101        21  DCM       C              -4.0773587904       -0.1958948077       -7.7526373723  CLST      21              1.0000000000
       102        21  DCM       H1             -4.3743452009       -1.2517370656       -7.9286703169  CLST      21              1.0000000000
       103        21  DCM       H2             -3.0637483638       -0.1342087618       -7.3027366083  CLST      21              1.0000000000
       104        21  DCM       CL1            -4.0760237111        0.6766640935       -9.3116744999  CLST      21              1.0000000000
       105        21  DCM       CL2            -5.2525561938        0.5616248712       -6.6410273550  CLST      21              1.0000000000
       106        22  DCM       C               8.9667294199       -4.1541803691       -3.8662807251  CLST      22              1.0000000000
       107        22  DCM       H1              9.7050452735       -4.7590004110       -4.4328174203  CLST      22              1.0000000000
       108        22  DCM       H2              9.3615139685       -3.1378724283       -3.6624850523  CLST      22              1.0000000000
       109        22  DCM       CL1             7.4671595951       -4.0140525175       -4.8272978922  CLST      22              1.0000000000
       110        22  DCM       CL2             8.6162359784       -4.9683514095       -2.3153283908  CLST      22              1.0000000000
       111        23  DCM       C               6.7231628022       -5.3032955555        4.4440095904  CLST      23              1.0000000000
       112        23  DCM       H1              7.6230066550       -4.7884320327        4.0462575719  CLST      23              1.0000000000
       113        23  DCM       H2              5.9040425827       -4.5800283224        4.6446487716  CLST      23              1.0000000000
       114        23  DCM       CL1             7.1642044557       -6.1254100205        5.9657047378  CLST      23              1.0000000000
       115        23  DCM       CL2             6.1639454559       -6.5011230669        3.2439700645  CLST      23              1.0000000000
       116        24  DCM       C              -6.6334496300        7.2808003800       -7.9265810199  CLST      24              1.0000000000
       117        24  DCM       H1             -6.8782448411        6.2563920040       -7.5781529077  CLST      24              1.0000000000
       118        24  DCM       H2             -5.5586654894        7.5074619876       -7.7630951995  CLST      24              1.0000000000
       119        24  DCM       CL1            -6.9947800444        7.4078502828       -9.6721718897  CLST      24              1.0000000000
       120        24  DCM       CL2            -7.6300761728        8.4534176851       -7.0180858494  CLST      24              1.0000000000
       121        25  DCM       C              -1.8707462280        2.6215287958       -0.9037483692  CLST      25              1.0000000000
       122        25  DCM       H1             -1.6802095205        1.5277275181       -0.8813253978  CLST      25              1.0000000000
       123        25  DCM       H2             -2.9518358673        2.8415253840       -0.7749586331  CLST      25              1.0000000000
       124        25  DCM       CL1            -0.9578145131        3.3956266865        0.4243870276  CLST      25              1.0000000000
       125        25  DCM       CL2            -1.3256879746        3.2728473973       -2.4774991064  CLST      25              1.0000000000
       126        26  DCM       C               2.1120707784       -3.2883009299        1.0624432417  CLST      26              1.0000000000
       127        26  DCM       H1              1.5631063099       -4.2363416497        0.8864756979  CLST      26              1.0000000000
       128        26  DCM       H2              2.5586793006       -2.9069173004        0.1213920294  CLST      26              1.0000000000
       129        26  DCM       CL1             0.9787030058       -2.0648844329        1.7015191311  CLST      26              1.0000000000
       130        26  DCM       CL2             3.4124265087       -3.5806301744        2.2510932927  CLST      26              1.0000000000
       131        27  DCM       C              -2.8770876873       -7.1113055514        4.8090690521  CLST      27              1.0000000000
       132        27  DCM       H1             -2.7604517145       -7.1373918740        3.7060550682  CLST      27              1.0000000000
       133        27  DCM       H2             -1.9599031077       -7.4818295601        5.3129914536  CLST      27              1.0000000000
       134        27  DCM       CL1            -3.1881143807       -5.4284628075        5.3230150874  CLST      27              1.0000000000
       135        27  DCM       CL2            -4.2561621047       -8.1497039023        5.2668611558  CLST      27              1.0000000000
       136        28  DCM       C              10.4700637851       -5.1987718340       -7.5352807800  CLST      28              1.0000000000
       137        28  DCM       H1             11.0031788160       -5.3196912773       -8.5020534542  CLST      28              1.0000000000
       138        28  DCM       H2             10.9048829403       -5.8565508481       -6.7533972842  CLST      28              1.0000000000
       139        28  DCM       CL1            10.6064858549       -3.4959639198       -7.0072562374  CLST      28              1.0000000000
       140        28  DCM       CL2             8.7499000632       -5.6276897196       -7.7657915178  CLST      28              1.0000000000
       141        29  DCM       C              11.2919104038        8.1853317482        0.3478826809  CLST      29              1.0000000000
       142        29  DCM       H1             12.3419540736        8.1641003694       -0.0122476084  CLST      29              1.0000000000
       143        29  DCM       H2             10.9923983813        9.2107985552        0.6486959604  CLST      29              1.0000000000
       144        29  DCM       CL1            11.1391509980        7.0999013425        1.7595395774  CLST      29              1.0000000000
       145        29  DCM       CL2            10.2154021787        7.6263373420       -0.9647750528  CLST      29              1.0000000000
       146        30  DCM       C               8.3409992817        7.9961603116        7.3245316098  CLST      30              1.0000000000
       147        30  DCM       H1              9.0977378544        8.0313590262        8.1364617069  CLST      30              1.0000000000
       148        30  DCM       H2              7.8802197813        8.9939108142        7.1655988622  CLST      30              1.0000000000
       149        30  DCM       CL1             9.1372453538        7.4759250185        5.8105027385  CLST      30              1.0000000000
       150        30  DCM       CL2             7.0588782848        6.8326041286        7.7708166282  CLST      30              1.0000000000
       151        31  DCM       C              -7.9713822404        7.0353295881        7.3166347133  CLST      31              1.0000000000
       152        31  DCM       H1             -7.0547101604        6.4164887484        7.4130864923  CLST      31              1.0000000000
       153        31  DCM       H2             -7.7462433537        8.1080694376        7.4916195241  CLST      31              1.0000000000
       154        31  DCM       CL1            -8.6362029520        6.8390357440        5.6686679286  CLST      31              1.0000000000
       155        31  DCM       CL2            -9.1732573163        6.4886180063        8.5214376148  CLST      31              1.0000000000
       156        32  DCM       C              -1.9957153938        7.7819434334       11.8923406755  CLST      32              1.0000000000
       157        32  DCM       H1             -1.3061461313        7.0907590943       11.3642097567  CLST      32              1.0000000000
       158        32  DCM       H2             -1.4447845277        8.4263629002       12.6093338923  CLST      32              1.0000000000
       159        32  DCM       CL1            -2.8140907224        8.8195791451       10.6874813593  CLST      32              1.0000000000
       160        32  DCM       CL2            -3.2083424433        6.8204546756       12.7881507553  CLST      32              1.0000000000
       161        33  DCM       C              -3.3456842909        3.6570454602       -5.6684322134  CLST      33              1.0000000000
       162        33  DCM       H1             -3.7838696221        2.8772747785       -5.0101065466  CLST      33              1.0000000000
       163        33  DCM       H2             -2.8405418498        4.4452426600       -5.0716311994  CLST      33              1.0000000000
       164        33  DCM       CL1            -2.1453246862        2.9002302445       -6.7544202971  CLST      33              1.0000000000
       165        33  DCM       CL2            -4.6515769094        4.4039218189       -6.6337120822  CLST      33              1.0000000000
       166        34  DCM       C              13.7531462857        8.0575803711       -4.1365701601  CLST      34              1.0000000000
       167        34  DCM       H1             14.4875864288        7.4246639941       -3.5946027231  CLST      34              1.0000000000
       168        34  DCM       H2             14.2533497382        8.6719212557       -4.9153039837  CLST      34              1.0000000000
       169        34  DCM       CL1            12.5402968912        7.0010277552       -4.9183389404  CLST      34              1.0000000000
       170        34  DCM       CL2            12.9490989859        9.1441903302       -2.9663057581  CLST      34              1.0000000000
       171        35  DCM       C               7.5911762747      -12.8706317999        0.9958287624  CLST      35              1.0000000000
       172        35  DCM       H1              7.3539852435      -11.9197590035        0.4744329894  CLST      35              1.0000000000
       173        35  DCM       H2              8.3420948828      -13.4605110611        0.4289885133  CLST      35              1.0000000000
       174        35  DCM       CL1             8.2491574474      -12.4974295877        2.6142409950  CLST      35              1.0000000000
       175        35  DCM       CL2             6.0934437711      -13.8325639143        1.1519477255  CLST      35              1.0000000000
       176        36  DCM       C              -2.9231780509       -5.1267459255      -13.5640736048  CLST      36              1.0000000000
       177        36  DCM       H1             -3.7551478916       -5.7014601744      -13.1047134554  CLST      36              1.0000000000
       178        36  DCM       H2             -2.6039196142       -4.2909363554      -12.9062142923  CLST      36              1.0000000000
       179        36  DCM       CL1            -1.5346259067       -6.2224841360      -13.8266325495  CLST      36              1.0000000000
       180        36  DCM       CL2            -3.4719452752       -4.4567019687      -15.1275646609  CLST      36              1.0000000000
       181        37  DCM       C              -7.0233700605       -5.6518041130        6.1405849180  CLST      37              1.0000000000
       182        37  DCM       H1             -7.7723745182       -5.5279615309        6.9511985147  CLST      37              1.0000000000
       183        37  DCM       H2             -6.0741389149       -6.0721257798        6.5353053160  CLST      37              1.0000000000
       184        37  DCM       CL1            -7.6827690438       -6.7626081433        4.9059851459  CLST      37              1.0000000000
       185        37  DCM       CL2            -6.6920601139       -4.0568931127        5.4057994869  CLST      37              1.0000000000
       186        38  DCM       C               3.6701709652       -5.6886498841        8.5550948075  CLST      38              1.0000000000
       187        38  DCM       H1              3.5580856385       -5.1863974813        9.5389707962  CLST      38              1.0000000000
       188        38  DCM       H2              2.7322227476       -6.2027198417        8.2580284358  CLST      38              1.0000000000
       189        38  DCM       CL1             4.0788108387       -4.4629646499        7.3198478071  CLST      38              1.0000000000
       190        38  DCM       CL2             4.9813836562       -6.8985328190        8.6678824498  CLST      38              1.0000000000
       191        39  DCM       C              -3.5246896836        6.3038776572        0.6320823833  CLST      39              1.0000000000
       192        39  DCM       H1             -2.5758986057        5.9676675485        0.1638136305  CLST      39              1.0000000000
       193        39  DCM       H2             -4.1422348176        6.8780580788       -0.0894101065  CLST      39              1.0000000000
       194        39  DCM       CL1            -4.4490228904        4.8715247185        1.1692305367  CLST      39              1.0000000000
       195        39  DCM       CL2            -3.1446840384        7.3456753870        2.0343586332  CLST      39              1.0000000000
       196        40  DCM       C             -10.2960319656       -3.9069753833        1.5804953248  CLST      40              1.0000000000
       197        40  DCM       H1            -10.5665096122       -4.9811920613        1.6427833242  CLST      40              1.0000000000
       198        40  DCM       H2            -11.0795845711       -3.2694558345        2.0409497893  CLST      40              1.0000000000
       199        40  DCM       CL1            -8.7549808004       -3.6522446949        2.4459241099  CLST      40              1.0000000000
       200        40  DCM       CL2           -10.1145596058       -3.4496319260       -0.1368044793  CLST      40              1.0000000000
       201        41  DCM       C               4.6118613323        9.0568988850        4.8069365354  CLST      41              1.0000000000
       202        41  DCM       H1              4.5999138498        9.7504667426        3.9397969347  CLST      41              1.0000000000
       203        41  DCM       H2              3.5987599578        8.6494933514        5.0079570997  CLST      41              1.0000000000
       204        41  DCM       CL1             5.7219130301        7.7032779733        4.4519414150  CLST      41              1.0000000000
       205        41  DCM       CL2             5.1819503962        9.9403131741        6.2527374725  CLST      41              1.0000000000
       206        42  DCM       C               2.1832193641        2.3404163910        3.9363768516  CLST      42              1.0000000000
       207        42  DCM       H1              1.8301458838        2.7521507994        4.9055160477  CLST      42              1.0000000000
       208        42  DCM       H2              3.1751968054        1.8532319340        4.0469707958  CLST      42              1.0000000000
       209        42  DCM       CL1             1.0000503505        1.1361094392        3.3515685000  CLST      42              1.0000000000
       210        42  DCM       CL2             2.3144871466        3.6724740142        2.7532526396  CLST      42              1.0000000000
       211        43  DCM       C              -4.3269142185        6.3012405989       -3.1422651772  CLST      43              1.0000000000
       212        43  DCM       H1             -4.5471773887        6.3048651798       -4.2307798146  CLST      43              1.0000000000
       213        43  DCM       H2             -4.9466458535        7.0552590492       -2.6122718450  CLST      43              1.0000000000
       214        43  DCM       CL1            -4.6857326544        4.6792994963       -2.4875602109  CLST      43              1.0000000000
       215        43  DCM       CL2            -2.5987186609        6.6808900383       -2.8935052468  CLST      43              1.0000000000
       216        44  DCM       C               8.6923180348       -2.3587699146       -9.9964989316  CLST      44              1.0000000000
       217        44  DCM       H1              9.2491164915       -1.4091001919       -9.8534025450  CLST      44              1.0000000000
       218        44  DCM       H2              8.3505201864       -2.7716082350       -9.0237671069  CLST      44              1.0000000000
       219        44  DCM       CL1             7.2662794413       -2.0456542298      -11.0270276094  CLST      44              1.0000000000
       220        44  DCM       CL2             9.7670318058       -3.5460647199      -10.7910738611  CLST      44              1.0000000000
       221        45  DCM       C             -10.5460558598       -4.5611588539       -3.9099284686  CLST      45              1.0000000000
       222        45  DCM       H1            -10.3188662630       -5.5370569403       -4.3890439294  CLST      45              1.0000000000
       223        45  DCM       H2             -9.7718970118       -4.2952731342       -3.1594646922  CLST      45              1.0000000000
       224        45  DCM       CL1           -10.5965897657       -3.2894259441       -5.1663896630  CLST      45              1.0000000000
       225        45  DCM       CL2           -12.1316726093       -4.6736840398       -3.0912467436  CLST      45              1.0000000000
       226        46  DCM       C              11.8752311065        4.6124030288       -2.0002744910  CLST      46              1.0000000000
       227        46  DCM       H1             11.5994072901        4.9688892010       -3.0139236246  CLST      46              1.0000000000
       228        46  DCM       H2             11.0313280757        4.7405471638       -1.2920789645  CLST      46              1.0000000000
       229        46  DCM       CL1            12.3025793193        2.8796493434       -2.0894186114  CLST      46              1.0000000000
       230        46  DCM       CL2            13.2769966806        5.5510069626       -1.4083899879  CLST      46              1.0000000000
       231        47  DCM       C              -2.4908782327        8.7326651581       -5.9558441733  CLST      47              1.0000000000
       232        47  DCM       H1             -2.2227323279        9.4995382368       -6.7129558955  CLST      47              1.0000000000
       233        47  DCM       H2             -1.8964809100        8.8615384042       -5.0272865092  CLST      47              1.0000000000
       234        47  DCM       CL1            -4.2248301389        8.8909037900       -5.5597917597  CLST      47              1.0000000000
       235        47  DCM       CL2            -2.1757275052        7.1080217749       -6.6316648673  CLST      47              1.0000000000
       236        48  DCM       C               8.3040992449       10.7784930779        4.0969603263  CLST      48              1.0000000000
       237        48  DCM       H1              9.1754130408       10.8610779506        3.4135322807  CLST      48              1.0000000000
       238        48  DCM       H2              7.9988122443        9.7194112413        4.2266541649  CLST      48              1.0000000000
       239        48  DCM       CL1             8.7442375130       11.4543017863        5.6922295005  CLST      48              1.0000000000
       240        48  DCM       CL2             6.9330075132       11.6949475042        3.4063742259  CLST      48              1.0000000000
       241        49  DCM       C              -4.3655214405        8.0707517532        5.5291518476  CLST      49              1.0000000000
       242        49  DCM       H1             -3.4653200602        8.6201377443        5.1809383766  CLST      49              1.0000000000
       243        49  DCM       H2             -4.4922962675        7.1170225406        4.9736065309  CLST      49              1.0000000000
       244        49  DCM       CL1            -4.2017729068        7.7192822446        7.2741125610  CLST      49              1.0000000000
       245        49  DCM       CL2            -5.8038165920        9.0910288295        5.2593210810  CLST      49              1.0000000000
       246        50  DCM       C               6.9843483474        2.4664356607       -1.7850189065  CLST      50              1.0000000000
       247        50  DCM       H1              6.8154745915        3.5513885882       -1.6356475904  CLST      50              1.0000000000
       248        50  DCM       H2              6.9648824073        1.9268789426       -0.8152870129  CLST      50              1.0000000000
       249        50  DCM       CL1             5.6915367445        1.8208974704       -2.8330762631  CLST      50              1.0000000000
       250        50  DCM       CL2             8.5762421186        2.2365958032       -2.5624397915  CLST      50              1.0000000000
       251        51  DCM       C               7.7542707813        2.4498860437       -9.8370335453  CLST      51              1.0000000000
       252        51  DCM       H1              7.4198302487        3.0993951262      -10.6734741784  CLST      51              1.0000000000
       253        51  DCM       H2              7.9405342726        3.0464128140       -8.9195515745  CLST      51              1.0000000000
       254        51  DCM       CL1             6.4819895496        1.2425055008       -9.4944332990  CLST      51              1.0000000000
       255        51  DCM       CL2             9.2663987740        1.6218563325      -10.3094735567  CLST      51              1.0000000000
       256        52  DCM       C               6.8493458150        6.5364348591       -7.4456954754  CLST      52              1.0000000000
       257        52  DCM       H1              7.6041472362        7.1833152825       -7.9396161114  CLST      52              1.0000000000
       258        52  DCM       H2              7.3170602075        5.9070438243       -6.6603302538  CLST      52              1.0000000000
       259        52  DCM       CL1             5.6019943517        7.5703403170       -6.6904442860  CLST      52              1.0000000000
       260        52  DCM       CL2             6.1007929547        5.4788899040       -8.6778302653  CLST      52              1.0000000000
       261        53  DCM       C               7.6674312697       -7.8739195445       -4.7350274505  CLST      53              1.0000000000
       262        53  DCM       H1              7.2009757248       -7.3303202376       -3.8866613881  CLST      53              1.0000000000
       263        53  DCM       H2              7.3113005424       -7.4717705792       -5.7071807660  CLST      53              1.0000000000
       264        53  DCM       CL1             7.2365899634       -9.6041108701       -4.6266110709  CLST      53              1.0000000000
       265        53  DCM       CL2             9.4434453895       -7.6960635204       -4.6402044163  CLST      53              1.0000000000
       266        54  DCM       C               3.5000700723       -7.7180028759        5.1856114653  CLST      54              1.0000000000
       267        54  DCM       H1              4.4191204626       -7.3777429450        5.7063602073  CLST      54              1.0000000000
       268        54  DCM       H2              3.7439975110       -8.4065375260        4.3507158246  CLST      54              1.0000000000
       269        54  DCM       CL1             2.6455622373       -6.2940610761        4.5297394034  CLST      54              1.0000000000
       270        54  DCM       CL2             2.4517824557       -8.5706702104        6.3522101651  CLST      54              1.0000000000
       271        55  DCM       C               9.5643628500        9.1455518060       -4.3327026239  CLST      55              1.0000000000
       272        55  DCM       H1             10.0336123240        8.3156569821       -3.7648206838  CLST      55              1.0000000000
       273        55  DCM       H2             10.1927877226       10.0598495244       -4.2935764644  CLST      55              1.0000000000
       274        55  DCM       CL1             9.3745234262        8.6392562370       -6.0357381186  CLST      55              1.0000000000
       275        55  DCM       CL2             7.9637309808        9.5044870294       -3.6230554636  CLST      55              1.0000000000
       276        56  DCM       C              -5.2872986782        9.6909436284       -0.1019090182  CLST      56              1.0000000000
       277        56  DCM       H1             -5.9642022668        8.8463566493       -0.3451075473  CLST      56              1.0000000000
       278        56  DCM       H2             -4.8755741455        9.5898404212        0.9237499932  CLST      56              1.0000000000
       279        56  DCM       CL1            -3.9378326124        9.7053229178       -1.2728193305  CLST      56              1.0000000000
       280        56  DCM       CL2            -6.2076594103       11.2184584101       -0.2139156850  CLST      56              1.0000000000
       281        57  DCM       C              10.6712653592        3.2656484092       -7.1404263742  CLST      57              1.0000000000
       282        57  DCM       H1              9.9631880030        2.4911245311       -7.5005294418  CLST      57              1.0000000000
       283        57  DCM       H2             11.6699922483        3.1445271870       -7.6109377786  CLST      57              1.0000000000
       284        57  DCM       CL1            10.8389876488        3.1086694189       -5.3701491340  CLST      57              1.0000000000
       285        57  DCM       CL2            10.0247656192        4.8820197695       -7.5455738535  CLST      57              1.0000000000
       286        58  DCM       C              -5.2451574555       12.6427886364        3.2419711850  CLST      58              1.0000000000
       287        58  DCM       H1             -5.1701988398       13.3082298040        2.3561320038  CLST      58              1.0000000000
       288        58  DCM       H2             -5.0793222396       13.2085313534        4.1832938742  CLST      58              1.0000000000
       289        58  DCM       CL1            -6.8766234061       11.9133150984        3.2835805494  CLST      58              1.0000000000
       290        58  DCM       CL2            -4.0081208569       11.3582489098        3.1086703996  CLST      58              1.0000000000
       291        59  DCM       C               0.0999029248       -4.2031599538        6.8848777811  CLST      59              1.0000000000
       292        59  DCM       H1              1.0522116319       -3.8617555619        7.3424473230  CLST      59              1.0000000000
       293        59  DCM       H2             -0.7760687628       -3.7631546736        7.4067226992  CLST      59              1.0000000000
       294        59  DCM       CL1             0.0656447305       -3.6972681168        5.1710181524  CLST      59              1.0000000000
       295        59  DCM       CL2             0.0069872959       -5.9844741691        6.9968581022  CLST      59              1.0000000000
       296        60  DCM       C              -8.1960724839       -6.7562427895       -0.0945914787  CLST      60              1.0000000000
       297        60  DCM       H1             -7.3142158827       -7.3363862821       -0.4407932119  CLST      60              1.0000000000
       298        60  DCM       H2             -7.9248263106       -5.6986073624        0.1076747067  CLST      60              1.0000000000
       299        60  DCM       CL1            -9.4529577804       -6.7963857827       -1.3625150835  CLST      60              1.0000000000
       300        60  DCM       CL2            -8.8249889186       -7.4941877531        1.4068989948  CLST      60              1.0000000000
       301        61  DCM       C               8.7923551880       -0.3133944011       -5.3322727575  CLST      61              1.0000000000
       302        61  DCM       H1              8.3671244173        0.6258104360       -4.9265264505  CLST      61              1.0000000000
       303        61  DCM       H2              8.1714756139       -1.1873938293       -5.0471443582  CLST      61              1.0000000000
       304        61  DCM       CL1             8.8463353003       -0.2048246417       -7.1133263114  CLST      61              1.0000000000
       305        61  DCM       CL2            10.4456537931       -0.5323564380       -4.6881547326  CLST      61              1.0000000000
       306        62  DCM       C             -15.9855510432       -5.7144523100        6.3225828521  CLST      62              1.0000000000
       307        62  DCM       H1            -16.6323658867       -5.2629426793        7.1035512830  CLST      62              1.0000000000
       308        62  DCM       H2            -16.4674275587       -6.6059984188        5.8685302579  CLST      62              1.0000000000
       309        62  DCM       CL1           -15.6858904972       -4.5011919985        5.0438237738  CLST      62              1.0000000000
       310        62  DCM       CL2           -14.4353107282       -6.2062145367        7.0657550969  CLST      62              1.0000000000
       311        63  DCM       C              -9.4904036068       11.3794088324        7.7524861906  CLST      63              1.0000000000
       312        63  DCM       H1             -8.8871652942       12.2745151582        8.0111819350  CLST      63              1.0000000000
       313        63  DCM       H2            -10.5601979506       11.6431967023        7.6213392731  CLST      63              1.0000000000
       314        63  DCM       CL1            -8.8726024171       10.6799262160        6.2273331276  CLST      63              1.0000000000
       315        63  DCM       CL2            -9.3455432577       10.1822536974        9.0709869784  CLST      63              1.0000000000
       316        64  DCM       C              12.1829961411       -2.0875098968       -0.3316363852  CLST      64              1.0000000000
       317        64  DCM       H1             11.4254512150       -2.4774059495        0.3823062331  CLST      64              1.0000000000
       318        64  DCM       H2             13.2123179563       -2.3486513503       -0.0040957692  CLST      64              1.0000000000
       319        64  DCM       CL1            11.8885191475       -2.8012352103       -1.9444952521  CLST      64              1.0000000000
       320        64  DCM       CL2            12.0391460148       -0.3081389977       -0.4170305318  CLST      64              1.0000000000
       321        65  DCM       C              -7.0220529842        3.2392284982       -9.1452720295  CLST      65              1.0000000000
       322        65  DCM       H1             -6.6728764391        2.7173424220       -8.2292398679  CLST      65              1.0000000000
       323        65  DCM       H2             -6.2514611104        3.9437072205       -9.5227496655  CLST      65              1.0000000000
       324        65  DCM       CL1            -7.3740379897        2.0251445256      -10.4086613464  CLST      65              1.0000000000
       325        65  DCM       CL2            -8.5068525495        4.1561162897       -8.7632217571  CLST      65              1.0000000000
       326        66  DCM       C               6.9799299393        5.9386155971       -3.4188627742  CLST      66              1.0000000000
       327        66  DCM       H1              6.3928663875        5.0094355225       -3.5738887069  CLST      66              1.0000000000
       328        66  DCM       H2              6.5950654690        6.7648829196       -4.0511691440  CLST      66              1.0000000000
       329        66  DCM       CL1             6.8613734528        6.4223140791       -1.7032270053  CLST      66              1.0000000000
       330        66  DCM       CL2             8.6873870546        5.6259778111       -3.8429703573  CLST      66              1.0000000000
       331        67  DCM       C              -8.9542039799       14.3493886955        5.2592297878  CLST      67              1.0000000000
       332        67  DCM       H1             -9.1224210138       13.4070112404        4.6963767517  CLST      67              1.0000000000
       333        67  DCM       H2             -8.8986821001       15.2207440207        4.5734854890  CLST      67              1.0000000000
       334        67  DCM       CL1            -7.4163185537       14.2211285938        6.1623501577  CLST      67              1.0000000000
       335        67  DCM       CL2           -10.3090512477       14.5928529709        6.3999737221  CLST      67              1.0000000000
       336        68  DCM       C               7.1950719990       -9.6128913423        5.8492181413  CLST      68              1.0000000000
       337        68  DCM       H1              6.1556802437       -9.2684353364        5.6659930455  CLST      68              1.0000000000
       338        68  DCM       H2              7.6513245862       -9.0687098832        6.7035708106  CLST      68              1.0000000000
       339        68  DCM       CL1             7.1714438301      -11.3599544897        6.2208546219  CLST      68              1.0000000000
       340        68  DCM       CL2             8.1733492704       -9.3162440042        4.3827391981  CLST      68              1.0000000000
       341        69  DCM       C              -5.5494330376       -5.6202633495        2.1914519959  CLST      69              1.0000000000
       342        69  DCM       H1             -5.0344285746       -5.3288769551        3.1295846215  CLST      69              1.0000000000
       343        69  DCM       H2             -6.6377111186       -5.7474055965        2.3648435174  CLST      69              1.0000000000
       344        69  DCM       CL1            -5.3011399519       -4.3411095473        0.9689069930  CLST      69              1.0000000000
       345        69  DCM       CL2            -4.8684708039       -7.1641438071        1.6021677709  CLST      69              1.0000000000
       346        70  DCM       C              -2.4253834942      -11.0774021522        6.7266394458  CLST      70              1.0000000000
       347        70  DCM       H1             -3.3853803769      -10.6784581836        7.1163513069  CLST      70              1.0000000000
       348        70  DCM       H2             -2.1219928556      -11.9964672723        7.2727382778  CLST      70              1.0000000000
       349        70  DCM       CL1            -2.6243480377      -11.4716591021        4.9943483580  CLST      70              1.0000000000
       350        70  DCM       CL2            -1.1550527067       -9.8352563337        6.9287463902  CLST      70              1.0000000000
       351        71  DCM       C               0.0797687926       -9.3699821401        3.4939312471  CLST      71              1.0000000000
       352        71  DCM       H1             -0.1162542877      -10.1815276443        4.2242781179  CLST      71              1.0000000000
       353        71  DCM       H2              0.1835488457       -8.3900614280        4.0074534633  CLST      71              1.0000000000
       354        71  DCM       CL1            -1.2749176414       -9.2945173320        2.3307038814  CLST      71              1.0000000000
       355        71  DCM       CL2             1.5950921900       -9.7382429046        2.6289099484  CLST      71              1.0000000000
       356        72  DCM       C               2.9378843676       -1.6020843875        5.1867590307  CLST      72              1.0000000000
       357        72  DCM       H1              3.0437938299       -2.7061066459        5.2390854498  CLST      72              1.0000000000
       358        72  DCM       H2              2.3744386855       -1.3046918804        4.2782115289  CLST      72              1.0000000000
       359        72  DCM       CL1             2.0608914204       -1.0239538960        6.6325140355  CLST      72              1.0000000000
       360        72  DCM       CL2             4.5622328720       -0.8633534341        5.1362271639  CLST      72              1.0000000000
       361        73  DCM       C               4.1669147073        0.3346805976        1.5131203615  CLST      73              1.0000000000
       362        73  DCM       H1              3.6971177339       -0.3664514252        2.2343897491  CLST      73              1.0000000000
       363        73  DCM       H2              3.4755891921        1.1652345933        1.2546853430  CLST      73              1.0000000000
       364        73  DCM       CL1             5.6492229743        1.0158930371        2.2422936215  CLST      73              1.0000000000
       365        73  DCM       CL2             4.5797983992       -0.5599435580        0.0252200581  CLST      73              1.0000000000
       366        74  DCM       C              -1.4487464282       -7.0447976879      -10.2894469397  CLST      74              1.0000000000
       367        74  DCM       H1             -0.4894263307       -6.6468725201      -10.6833414026  CLST      74              1.0000000000
       368        74  DCM       H2             -1.9064767996       -7.7613655583      -11.0042023101  CLST      74              1.0000000000
       369        74  DCM       CL1            -1.1380949560       -7.8855197115       -8.7425446182  CLST      74              1.0000000000
       370        74  DCM       CL2            -2.5786951757       -5.6839818483      -10.0248245342  CLST      74              1.0000000000
       371        75  DCM       C             -11.4608061870       -5.1871691725        4.9914073968  CLST      75              1.0000000000
       372        75  DCM       H1            -12.5455274953       -4.9586371986        5.0594517677  CLST      75              1.0000000000
       373        75  DCM       H2            -10.9193269233       -4.3913273061        4.4408201406  CLST      75              1.0000000000
       374        75  DCM       CL1           -11.2441229028       -6.7379611412        4.1324458421  CLST      75              1.0000000000
       375        75  DCM       CL2           -10.7829230187       -5.3056777849        6.6402730639  CLST      75              1.0000000000
       376        76  DCM       C               8.7210915973       -1.1980930725       -1.3497618902  CLST      76              1.0000000000
       377        76  DCM       H1              9.1166744879       -2.2091063297       -1.1248167245  CLST      76              1.0000000000
       378        76  DCM       H2              9.4393117091       -0.6110343934       -1.9553211462  CLST      76              1.0000000000
       379        76  DCM       CL1             7.1914756084       -1.3654946083       -2.2569012480  CLST      76              1.0000000000
       380        76  DCM       CL2             8.4274370509       -0.3395400945        0.1892903665  CLST      76              1.0000000000
       381        77  DCM       C              -7.3329920310       -1.5057378660       -9.2464612434  CLST      77              1.0000000000
       382        77  DCM       H1             -6.9837792891       -0.4916865920       -8.9607938866  CLST      77              1.0000000000
       383        77  DCM       H2             -8.3786087974       -1.4767656010       -9.6192010044  CLST      77              1.0000000000
       384        77  DCM       CL1            -6.2694732577       -2.1439056876      -10.5345663630  CLST      77              1.0000000000
       385        77  DCM       CL2            -7.2547369794       -2.5659134060       -7.8091852571  CLST      77              1.0000000000
       386        78  DCM       C               5.3016961073        2.7810770507       -6.2737408736  CLST      78              1.0000000000
       387        78  DCM       H1              5.0887737508        2.7288288745       -7.3608312627  CLST      78              1.0000000000
       388        78  DCM       H2              4.9792888575        1.8532818078       -5.7572014526  CLST      78              1.0000000000
       389        78  DCM       CL1             7.0595391570        3.0047010506       -6.0309800952  CLST      78              1.0000000000
       390        78  DCM       CL2             4.4151149852        4.1703873365       -5.5823743522  CLST      78              1.0000000000
       391        79  DCM       C               1.9131527745       -7.4897731666       -0.1148357993  CLST      79              1.0000000000
       392        79  DCM       H1              0.9856028005       -7.6354972761        0.4777573135  CLST      79              1.0000000000
       393        79  DCM       H2              2.2312318343       -8.4411795316       -0.5905109414  CLST      79              1.0000000000
       394        79  DCM       CL1             1.6067302283       -6.2699876156       -1.3839212741  CLST      79              1.0000000000
       395        79  DCM       CL2             3.2155832333       -6.9201961382        0.9669252696  CLST      79              1.0000000000
       396        80  DCM       C               9.4714233171        4.1733998937        8.6590533762  CLST      80              1.0000000000
       397        80  DCM       H1              9.3693049742        5.2516866999        8.9018338830  CLST      80              1.0000000000
       398        80  DCM       H2              8.6028869254        3.5940500596        9.0372216085  CLST      80              1.0000000000
       399        80  DCM       CL1             9.5681525619        3.9849806718        6.8833395968  CLST      80              1.0000000000
       400        80  DCM       CL2            10.9643473474        3.5485297109        9.4186381857  CLST      80              1.0000000000
       401        81  DCM       C               9.9098645166        2.8764641446        0.9444258711  CLST      81              1.0000000000
       402        81  DCM       H1              9.4149451263        2.2324116347        1.7014574210  CLST      81              1.0000000000
       403        81  DCM       H2             10.0546256642        2.3304529508       -0.0109403706  CLST      81              1.0000000000
       404        81  DCM       CL1             8.8907886518        4.3160620518        0.6492554447  CLST      81              1.0000000000
       405        81  DCM       CL2            11.5084504452        3.3806495570        1.5643881008  CLST      81              1.0000000000
       406        82  DCM       C             -12.2111593120       -1.6480799761        5.9126478336  CLST      82              1.0000000000
       407        82  DCM       H1            -12.2874251692       -0.5629537669        6.1389273092  CLST      82              1.0000000000
       408        82  DCM       H2            -11.1688441732       -2.0112249759        6.0415764439  CLST      82              1.0000000000
       409        82  DCM       CL1           -13.2808107456       -2.5487421788        7.0257078226  CLST      82              1.0000000000
       410        82  DCM       CL2           -12.7209077457       -1.9258361497        4.2219387050  CLST      82              1.0000000000
       411        83  DCM       C               7.6027282471       -2.9333470982        7.7090120925  CLST      83              1.0000000000
       412        83  DCM       H1              6.8546654821       -3.7502978039        7.7636369417  CLST      83              1.0000000000
       413        83  DCM       H2              7.3084951546       -2.0809916208        8.3554331880  CLST      83              1.0000000000
       414        83  DCM       CL1             7.7289827798       -2.3636995775        6.0204818150  CLST      83              1.0000000000
       415        83  DCM       CL2             9.1839419606       -3.5629452350        8.2541190129  CLST      83              1.0000000000
       416        84  DCM       C             -13.6078957729       -5.6479527977        0.4476096922  CLST      84              1.0000000000
       417        84  DCM       H1            -14.5921203715       -6.1062814126        0.2120615387  CLST      84              1.0000000000
       418        84  DCM       H2            -13.2786134563       -4.9675367899       -0.3649691635  CLST      84              1.0000000000
       419        84  DCM       CL1           -13.7444485203       -4.7174096438        1.9669533208  CLST      84              1.0000000000
       420        84  DCM       CL2           -12.3969072868       -6.9455754151        0.6443926034  CLST      84              1.0000000000
       421        85  DCM       C              -6.9072365797       -2.4215198947      -15.2007336628  CLST      85              1.0000000000
       422        85  DCM       H1             -6.1250041774       -2.5865642854      -14.4295473700  CLST      85              1.0000000000
       423        85  DCM       H2             -6.7325167170       -1.4729703181      -15.7513600373  CLST      85              1.0000000000
       424        85  DCM       CL1            -6.8740144304       -3.7794964894      -16.3624160370  CLST      85              1.0000000000
       425        85  DCM       CL2            -8.5054401327       -2.3455110663      -14.4028044301  CLST      85              1.0000000000
       426        86  DCM       C               6.0217539561      -14.5018698773        4.9659558099  CLST      86              1.0000000000
       427        86  DCM       H1              6.7630678149      -14.3877010311        5.7848432231  CLST      86              1.0000000000
       428        86  DCM       H2              6.1035647246      -13.6709897514        4.2356931080  CLST      86              1.0000000000
       429        86  DCM       CL1             6.3190875842      -16.0497768471        4.1228599756  CLST      86              1.0000000000
       430        86  DCM       CL2             4.3766560363      -14.4952472359        5.6638494805  CLST      86              1.0000000000
       431        87  DCM       C              -9.6947410771      -10.5224413398       -0.4360028677  CLST      87              1.0000000000
       432        87  DCM       H1            -10.2400591866       -9.5754778739       -0.2383237415  CLST      87              1.0000000000
       433        87  DCM       H2             -9.1925057445      -10.8894286992        0.4842694483  CLST      87              1.0000000000
       434        87  DCM       CL1           -10.8585689305      -11.7563613753       -0.9990883539  CLST      87              1.0000000000
       435        87  DCM       CL2            -8.4616557989      -10.2337130529       -1.6967585867  CLST      87              1.0000000000
       436        88  DCM       C               7.5509209158      -12.8856585038       -2.8382804888  CLST      88              1.0000000000
       437        88  DCM       H1              7.5858105295      -12.8910532294       -3.9487618087  CLST      88              1.0000000000
       438        88  DCM       H2              7.6702146381      -13.9113852757       -2.4284528950  CLST      88              1.0000000000
       439        88  DCM       CL1             8.8730242071      -11.8522721127       -2.2216903372  CLST      88              1.0000000000
       440        88  DCM       CL2             5.9737350574      -12.2312509789       -2.3123691705  CLST      88              1.0000000000
       441        89  DCM       C              -6.5706262099        6.9403583343       11.1213588099  CLST      89              1.0000000000
       442        89  DCM       H1             -6.1327806612        6.9679327264       12.1412295255  CLST      89              1.0000000000
       443        89  DCM       H2             -7.6429347287        6.6529647168       11.1547963219  CLST      89              1.0000000000
       444        89  DCM       CL1            -6.4275636799        8.5614418577       10.3860604013  CLST      89              1.0000000000
       445        89  DCM       CL2            -5.6765730896        5.7489576139       10.1330304113  CLST      89              1.0000000000
       446        90  DCM       C               3.5908790707       -9.5771062630       -4.3209984985  CLST      90              1.0000000000
       447        90  DCM       H1              2.4966015432       -9.7625222303       -4.2857861535  CLST      90              1.0000000000
       448        90  DCM       H2              4.1422386065      -10.4866213427       -4.6408169818  CLST      90              1.0000000000
       449        90  DCM       CL1             3.9199497042       -8.2590507498       -5.4836096444  CLST      90              1.0000000000
       450        90  DCM       CL2             4.1532192358       -9.1041542242       -2.6920134396  CLST      90              1.0000000000
       451        91  DCM       C               5.3389278933        5.5687717142        1.6848090133  CLST      91              1.0000000000
       452        91  DCM       H1              5.0042796536        5.3487002927        2.7201725870  CLST      91              1.0000000000
       453        91  DCM       H2              6.3928089548        5.9158208404        1.6708218618  CLST      91              1.0000000000
       454        91  DCM       CL1             5.2132655777        4.0798421866        0.7105915233  CLST      91              1.0000000000
       455        91  DCM       CL2             4.2896728216        6.8395421016        0.9894813877  CLST      91              1.0000000000
       456        92  DCM       C              -1.6899335335        6.6485809501       16.0620064306  CLST      92              1.0000000000
       457        92  DCM       H1             -2.1032033820        5.6631880460       15.7590286800  CLST      92              1.0000000000
       458        92  DCM       H2             -2.4182758279        7.4639348176       15.8669478324  CLST      92              1.0000000000
       459        92  DCM       CL1            -1.3149842833        6.6098911096       17.8095528189  CLST      92              1.0000000000
       460        92  DCM       CL2            -0.1986182572        6.9653329509       15.1274049878  CLST      92              1.0000000000
       461        93  DCM       C              -3.1914054364        4.2285201644      -10.2163376734  CLST      93              1.0000000000
       462        93  DCM       H1             -3.4071236398        3.5694213955       -9.3498043450  CLST      93              1.0000000000
       463        93  DCM       H2             -2.1068954213        4.2316492612      -10.4557222321  CLST      93              1.0000000000
       464        93  DCM       CL1            -4.1028919347        3.6380855294      -11.6360115480  CLST      93              1.0000000000
       465        93  DCM       CL2            -3.7038492930        5.8922298408       -9.8172572122  CLST      93              1.0000000000
       466        94  DCM       C               4.8040846197       -4.3609230404       -1.8769068587  CLST      94              1.0000000000
       467        94  DCM       H1              5.8365003152       -3.9883494082       -1.7153134166  CLST      94              1.0000000000
       468        94  DCM       H2              4.3601747122       -4.7404834408       -0.9328412691  CLST      94              1.0000000000
       469        94  DCM       CL1             3.7974682411       -3.0270364355       -2.5081548434  CLST      94              1.0000000000
       470        94  DCM       CL2             4.8563803826       -5.6866643774       -3.0702831259  CLST      94              1.0000000000
       471        95  DCM       C              -7.1135064471       10.9165187160       -4.1137734187  CLST      95              1.0000000000
       472        95  DCM       H1             -7.9374673612       11.4919199142       -3.6413616116  CLST      95              1.0000000000
       473        95  DCM       H2             -7.2787037327       10.8012763691       -5.2050175647  CLST      95              1.0000000000
       474        95  DCM       CL1            -5.5745550065       11.7884315910       -3.8532977714  CLST      95              1.0000000000
       475        95  DCM       CL2            -7.0336224162        9.2954942837       -3.3621925275  CLST      95              1.0000000000
