* PRE_MLPOT:MONOMER_REPACK
*  DATE:     6/28/26      1:59: 8      CREATED BY USER: boittier
*
       475  EXT
         1         1  DCM       C              -3.1459740275        0.1431023130        0.5738678877  CLST      1               1.0000000000
         2         1  DCM       H1             -3.4768481714        0.0386943270        1.6288247471  CLST      1               1.0000000000
         3         1  DCM       H2             -3.9414955219        0.5983301681       -0.0532091463  CLST      1               1.0000000000
         4         1  DCM       CL1            -1.6949207582        1.1863671592        0.5200748483  CLST      1               1.0000000000
         5         1  DCM       CL2            -2.7540949177       -1.4761959079       -0.0737825716  CLST      1               1.0000000000
         6         2  DCM       C               0.1640286964        1.6080196602       -1.7458102426  CLST      2               1.0000000000
         7         2  DCM       H1              0.8956060178        0.8849064146       -2.1640297770  CLST      2               1.0000000000
         8         2  DCM       H2             -0.4603824589        2.0558206435       -2.5469881606  CLST      2               1.0000000000
         9         2  DCM       CL1            -0.8969272394        0.7562297622       -0.5857758655  CLST      2               1.0000000000
        10         2  DCM       CL2             1.0532072520        2.9097346288       -0.9041751978  CLST      2               1.0000000000
        11         3  DCM       C              -0.4148015569        0.6511123150       -1.8936103268  CLST      3               1.0000000000
        12         3  DCM       H1              0.5912710189        0.7755298662       -2.3489284937  CLST      3               1.0000000000
        13         3  DCM       H2             -1.0068511972       -0.1179648193       -2.4339470553  CLST      3               1.0000000000
        14         3  DCM       CL1            -0.2231168197        0.1466043394       -0.1903453831  CLST      3               1.0000000000
        15         3  DCM       CL2            -1.2847482881        2.2093362249       -1.9684260293  CLST      3               1.0000000000
        16         4  DCM       C              -2.4214847818       -2.2865686176        2.5595116909  CLST      4               1.0000000000
        17         4  DCM       H1             -2.2927002070       -1.2982897262        3.0492819010  CLST      4               1.0000000000
        18         4  DCM       H2             -3.4077432293       -2.7287403166        2.8078914877  CLST      4               1.0000000000
        19         4  DCM       CL1            -2.3075419880       -2.0824940037        0.7881205858  CLST      4               1.0000000000
        20         4  DCM       CL2            -1.1331186658       -3.3880316466        3.1218396253  CLST      4               1.0000000000
        21         5  DCM       C              -2.9363633039        2.4622481712       -1.0588488215  CLST      5               1.0000000000
        22         5  DCM       H1             -3.2589239490        1.4107110306       -1.2128001201  CLST      5               1.0000000000
        23         5  DCM       H2             -2.3901612066        2.5737509301       -0.0996249675  CLST      5               1.0000000000
        24         5  DCM       CL1            -1.8551484055        2.9442087799       -2.3977269411  CLST      5               1.0000000000
        25         5  DCM       CL2            -4.3793916336        3.5168389440       -1.0299533231  CLST      5               1.0000000000
        26         6  DCM       C              -1.1138897236        2.1846799222        1.5918394833  CLST      6               1.0000000000
        27         6  DCM       H1             -1.0672890965        2.1269427166        2.6995540520  CLST      6               1.0000000000
        28         6  DCM       H2             -0.0934840533        2.1835039239        1.1499534995  CLST      6               1.0000000000
        29         6  DCM       CL1            -2.0205259980        0.7738715483        0.9717511779  CLST      6               1.0000000000
        30         6  DCM       CL2            -1.9491141101        3.6935880393        1.1214156778  CLST      6               1.0000000000
        31         7  DCM       C              -1.1753896720        2.1396405638       -0.7660162635  CLST      7               1.0000000000
        32         7  DCM       H1             -0.8030514792        1.1637014419       -1.1422178263  CLST      7               1.0000000000
        33         7  DCM       H2             -1.8743122901        1.9990850789        0.0858517291  CLST      7               1.0000000000
        34         7  DCM       CL1             0.2160990333        3.1219887316       -0.2212262161  CLST      7               1.0000000000
        35         7  DCM       CL2            -2.0342617070        2.9824462399       -2.0886772874  CLST      7               1.0000000000
        36         8  DCM       C               1.6162894431        0.8092739825       -0.2608288983  CLST      8               1.0000000000
        37         8  DCM       H1              0.9663585894       -0.0236646081       -0.6047993965  CLST      8               1.0000000000
        38         8  DCM       H2              2.2525203085        1.1866292719       -1.0892278295  CLST      8               1.0000000000
        39         8  DCM       CL1             0.5890616226        2.1422961773        0.3379158572  CLST      8               1.0000000000
        40         8  DCM       CL2             2.6715731891        0.2242282727        1.0569174455  CLST      8               1.0000000000
        41         9  DCM       C               2.1923166975        2.2700575489       -1.9695182718  CLST      9               1.0000000000
        42         9  DCM       H1              2.9268962919        1.6754614831       -1.3866804621  CLST      9               1.0000000000
        43         9  DCM       H2              1.4009978877        1.6174979359       -2.3949380786  CLST      9               1.0000000000
        44         9  DCM       CL1             1.4291235503        3.4731078682       -0.8908785062  CLST      9               1.0000000000
        45         9  DCM       CL2             3.0462485079        3.1025200291       -3.3008562905  CLST      9               1.0000000000
        46        10  DCM       C              -0.2034243035        1.4367433614        1.1496454876  CLST      10              1.0000000000
        47        10  DCM       H1             -0.0570547567        1.7821038362        2.1953071265  CLST      10              1.0000000000
        48        10  DCM       H2             -1.2222613939        1.6789146118        0.7886999195  CLST      10              1.0000000000
        49        10  DCM       CL1             0.9899020856        2.2488470148        0.0954347349  CLST      10              1.0000000000
        50        10  DCM       CL2             0.0258687562       -0.3346309560        1.0857896689  CLST      10              1.0000000000
        51        11  DCM       C               1.6592627813       -2.6898061232       -1.3533148921  CLST      11              1.0000000000
        52        11  DCM       H1              1.9453169532       -1.7490778963       -0.8387415818  CLST      11              1.0000000000
        53        11  DCM       H2              2.4495437956       -3.0044118627       -2.0640721716  CLST      11              1.0000000000
        54        11  DCM       CL1             1.4279345219       -3.9757106685       -0.1346690125  CLST      11              1.0000000000
        55        11  DCM       CL2             0.1400514822       -2.4236294861       -2.2550837936  CLST      11              1.0000000000
        56        12  DCM       C               2.2470759905        1.9385706370        1.1720455607  CLST      12              1.0000000000
        57        12  DCM       H1              3.3519478466        1.8908229248        1.0880871780  CLST      12              1.0000000000
        58        12  DCM       H2              1.9089330219        2.9686832381        1.4047029010  CLST      12              1.0000000000
        59        12  DCM       CL1             1.5207032643        1.4373357253       -0.3802995313  CLST      12              1.0000000000
        60        12  DCM       CL2             1.7161633871        0.8383163611        2.4767459455  CLST      12              1.0000000000
        61        13  DCM       C              -0.4573469306       -1.7214569644        0.0055001481  CLST      13              1.0000000000
        62        13  DCM       H1              0.2153515790       -0.8821669533       -0.2683026453  CLST      13              1.0000000000
        63        13  DCM       H2             -0.2758008348       -2.6007559274       -0.6473213833  CLST      13              1.0000000000
        64        13  DCM       CL1            -2.1566281251       -1.1945823866       -0.1789977279  CLST      13              1.0000000000
        65        13  DCM       CL2            -0.1493930730       -2.1848921376        1.7041866586  CLST      13              1.0000000000
        66        14  DCM       C               1.7442858162       -2.4499413840       -1.8762959801  CLST      14              1.0000000000
        67        14  DCM       H1              1.9281202235       -2.0915243203       -2.9112266811  CLST      14              1.0000000000
        68        14  DCM       H2              1.0646417451       -3.3276734423       -1.8697996326  CLST      14              1.0000000000
        69        14  DCM       CL1             3.3034271493       -2.9168594981       -1.1376462707  CLST      14              1.0000000000
        70        14  DCM       CL2             0.9989442376       -1.1302791339       -0.9272369169  CLST      14              1.0000000000
        71        15  DCM       C              -2.3048901642       -2.3889334340       -1.5911419508  CLST      15              1.0000000000
        72        15  DCM       H1             -2.7199269244       -2.4956740402       -2.6142321195  CLST      15              1.0000000000
        73        15  DCM       H2             -3.1002911365       -2.4863409409       -0.8238322939  CLST      15              1.0000000000
        74        15  DCM       CL1            -1.0828758292       -3.6654972556       -1.3255741237  CLST      15              1.0000000000
        75        15  DCM       CL2            -1.5409398111       -0.7804693468       -1.4379997536  CLST      15              1.0000000000
        76        16  DCM       C              -0.8439131328        1.3511275194        1.7028119866  CLST      16              1.0000000000
        77        16  DCM       H1             -1.7859712245        1.8598787786        1.9963840242  CLST      16              1.0000000000
        78        16  DCM       H2             -0.9557189663        0.8336094268        0.7278259457  CLST      16              1.0000000000
        79        16  DCM       CL1             0.4595617621        2.5671015558        1.5667114834  CLST      16              1.0000000000
        80        16  DCM       CL2            -0.4194735990        0.1470082481        2.9528579024  CLST      16              1.0000000000
        81        17  DCM       C              -0.4213453894       -2.3377864863       -3.1616895010  CLST      17              1.0000000000
        82        17  DCM       H1             -0.6406913354       -1.7308384806       -4.0648000161  CLST      17              1.0000000000
        83        17  DCM       H2             -1.3321903115       -2.8534152750       -2.7963900407  CLST      17              1.0000000000
        84        17  DCM       CL1             0.8147220099       -3.5628712801       -3.5716413806  CLST      17              1.0000000000
        85        17  DCM       CL2             0.1937081001       -1.2629380674       -1.8714138781  CLST      17              1.0000000000
        86        18  DCM       C               2.2885375561       -0.7051003186       -1.2703386526  CLST      18              1.0000000000
        87        18  DCM       H1              2.4971125130        0.1545723246       -1.9396427230  CLST      18              1.0000000000
        88        18  DCM       H2              2.1562275927       -0.3715924345       -0.2201481398  CLST      18              1.0000000000
        89        18  DCM       CL1             3.6584072603       -1.8509941775       -1.3490742676  CLST      18              1.0000000000
        90        18  DCM       CL2             0.7924353501       -1.5174579797       -1.8154834184  CLST      18              1.0000000000
        91        19  DCM       C              -0.5766838555        0.0018618357       -2.4917719265  CLST      19              1.0000000000
        92        19  DCM       H1             -1.6779138838        0.1458137342       -2.4987246791  CLST      19              1.0000000000
        93        19  DCM       H2             -0.1850558766       -0.0337914142       -1.4532034502  CLST      19              1.0000000000
        94        19  DCM       CL1             0.1904006244        1.3645234958       -3.3559149494  CLST      19              1.0000000000
        95        19  DCM       CL2            -0.1835650285       -1.5355008129       -3.3128062099  CLST      19              1.0000000000
        96        20  DCM       C               1.4157761126       -2.8371669794        2.6633264692  CLST      20              1.0000000000
        97        20  DCM       H1              1.2567829312       -2.2623188683        1.7272524311  CLST      20              1.0000000000
        98        20  DCM       H2              0.6904508946       -3.6736340741        2.7438470918  CLST      20              1.0000000000
        99        20  DCM       CL1             3.0755737443       -3.4986155825        2.6717755531  CLST      20              1.0000000000
       100        20  DCM       CL2             1.2012818847       -1.7348169838        4.0515994798  CLST      20              1.0000000000
       101        21  DCM       C              -0.8465109541        2.3428651472       -2.6853045090  CLST      21              1.0000000000
       102        21  DCM       H1             -1.1434973646        1.2870228892       -2.8613374535  CLST      21              1.0000000000
       103        21  DCM       H2              0.1670994725        2.4045511931       -2.2354037449  CLST      21              1.0000000000
       104        21  DCM       CL1            -0.8451758747        3.2154240483       -4.2443416365  CLST      21              1.0000000000
       105        21  DCM       CL2            -2.0217083574        3.1003848260       -1.5736944916  CLST      21              1.0000000000
       106        22  DCM       C               2.7064307005        1.6256258685       -2.3207030110  CLST      22              1.0000000000
       107        22  DCM       H1              3.4447465540        1.0208058265       -2.8872397061  CLST      22              1.0000000000
       108        22  DCM       H2              3.1012152490        2.6419338092       -2.1169073381  CLST      22              1.0000000000
       109        22  DCM       CL1             1.2068608756        1.7657537200       -3.2817201780  CLST      22              1.0000000000
       110        22  DCM       CL2             2.3559372589        0.8114548280       -0.7697506766  CLST      22              1.0000000000
       111        23  DCM       C              -1.6433303151        0.8553404438        0.0632352958  CLST      23              1.0000000000
       112        23  DCM       H1             -0.7434864624        1.3702039666       -0.3345167227  CLST      23              1.0000000000
       113        23  DCM       H2             -2.4624505347        1.5786076769        0.2638744770  CLST      23              1.0000000000
       114        23  DCM       CL1            -1.2022886616        0.0332259787        1.5849304432  CLST      23              1.0000000000
       115        23  DCM       CL2            -2.2025476615       -0.3424870677       -1.1368042301  CLST      23              1.0000000000
       116        24  DCM       C               1.4814538479       -1.1275723043        2.7700567069  CLST      24              1.0000000000
       117        24  DCM       H1              1.2366586368       -2.1519806803        3.1184848190  CLST      24              1.0000000000
       118        24  DCM       H2              2.5562379885       -0.9009106967        2.9335425272  CLST      24              1.0000000000
       119        24  DCM       CL1             1.1201234335       -1.0005224015        1.0244658370  CLST      24              1.0000000000
       120        24  DCM       CL2             0.4848273051        0.0450450008        3.6785518774  CLST      24              1.0000000000
       121        25  DCM       C              -0.6784233439       -1.7388823971        2.7155856684  CLST      25              1.0000000000
       122        25  DCM       H1             -0.4878866363       -2.8326836748        2.7380086397  CLST      25              1.0000000000
       123        25  DCM       H2             -1.7595129831       -1.5188858088        2.8443754045  CLST      25              1.0000000000
       124        25  DCM       CL1             0.2345083711       -0.9647845063        4.0437210651  CLST      25              1.0000000000
       125        25  DCM       CL2            -0.1333650905       -1.0875637955        1.1418349312  CLST      25              1.0000000000
       126        26  DCM       C               0.2907092839        0.6779871521        1.3046112372  CLST      26              1.0000000000
       127        26  DCM       H1             -0.2582551846       -0.2700535677        1.1286436934  CLST      26              1.0000000000
       128        26  DCM       H2              0.7373178061        1.0593707816        0.3635600249  CLST      26              1.0000000000
       129        26  DCM       CL1            -0.8426584887        1.9014036491        1.9436871266  CLST      26              1.0000000000
       130        26  DCM       CL2             1.5910650142        0.3856579075        2.4932612882  CLST      26              1.0000000000
       131        27  DCM       C               0.5289524024       -2.1854719232       -0.5214391957  CLST      27              1.0000000000
       132        27  DCM       H1              0.6455883751       -2.2115582457       -1.6244531797  CLST      27              1.0000000000
       133        27  DCM       H2              1.4461369819       -2.5559959319       -0.0175167943  CLST      27              1.0000000000
       134        27  DCM       CL1             0.2179257089       -0.5026291792       -0.0074931605  CLST      27              1.0000000000
       135        27  DCM       CL2            -0.8501220150       -3.2238702741       -0.0636470921  CLST      27              1.0000000000
       136        28  DCM       C               1.2676913334        0.8273604230       -1.9691300916  CLST      28              1.0000000000
       137        28  DCM       H1              1.8008063643        0.7064409798       -2.9359027659  CLST      28              1.0000000000
       138        28  DCM       H2              1.7025104885        0.1695814089       -1.1872465959  CLST      28              1.0000000000
       139        28  DCM       CL1             1.4041134032        2.5301683373       -1.4411055491  CLST      28              1.0000000000
       140        28  DCM       CL2            -0.4524723885        0.3984425374       -2.1996408295  CLST      28              1.0000000000
       141        29  DCM       C               0.5328991240        2.6106625748       -2.6513526197  CLST      29              1.0000000000
       142        29  DCM       H1              1.5829427938        2.5894311960       -3.0114829090  CLST      29              1.0000000000
       143        29  DCM       H2              0.2333871015        3.6361293818       -2.3505393402  CLST      29              1.0000000000
       144        29  DCM       CL1             0.3801397181        1.5252321691       -1.2396957232  CLST      29              1.0000000000
       145        29  DCM       CL2            -0.5436091011        2.0516681686       -3.9640103534  CLST      29              1.0000000000
       146        30  DCM       C               2.2740979680       -1.3139399423       -2.7501310351  CLST      30              1.0000000000
       147        30  DCM       H1              3.0308365407       -1.2787412277       -1.9382009381  CLST      30              1.0000000000
       148        30  DCM       H2              1.8133184676       -0.3161894397       -2.9090637828  CLST      30              1.0000000000
       149        30  DCM       CL1             3.0703440401       -1.8341752354       -4.2641599064  CLST      30              1.0000000000
       150        30  DCM       CL2             0.9919769711       -2.4774961253       -2.3038460167  CLST      30              1.0000000000
       151        31  DCM       C              -2.6950163371        0.6553764836        1.3344689086  CLST      31              1.0000000000
       152        31  DCM       H1             -1.7783442571        0.0365356439        1.4309206876  CLST      31              1.0000000000
       153        31  DCM       H2             -2.4698774504        1.7281163331        1.5094537194  CLST      31              1.0000000000
       154        31  DCM       CL1            -3.3598370487        0.4590826395       -0.3134978761  CLST      31              1.0000000000
       155        31  DCM       CL2            -3.8968914130        0.1086649019        2.5392718101  CLST      31              1.0000000000
       156        32  DCM       C               2.2453986566       -0.9331230795        2.1114419495  CLST      32              1.0000000000
       157        32  DCM       H1              2.9349679190       -1.6243074186        1.5833110307  CLST      32              1.0000000000
       158        32  DCM       H2              2.7963295227       -0.2887036127        2.8284351663  CLST      32              1.0000000000
       159        32  DCM       CL1             1.4270233280        0.1045126322        0.9065826333  CLST      32              1.0000000000
       160        32  DCM       CL2             1.0327716070       -1.8946118373        3.0072520293  CLST      32              1.0000000000
       161        33  DCM       C               1.6393429334        1.2310638370        3.6205802325  CLST      33              1.0000000000
       162        33  DCM       H1              1.2011576021        0.4512931553        4.2789058993  CLST      33              1.0000000000
       163        33  DCM       H2              2.1444853745        2.0192610368        4.2173812464  CLST      33              1.0000000000
       164        33  DCM       CL1             2.8397025381        0.4742486213        2.5345921488  CLST      33              1.0000000000
       165        33  DCM       CL2             0.3334503148        1.9779401957        2.6553003637  CLST      33              1.0000000000
       166        34  DCM       C               0.7651997104        0.6080721811       -1.4227773083  CLST      34              1.0000000000
       167        34  DCM       H1              1.4996398535       -0.0248441960       -0.8808098713  CLST      34              1.0000000000
       168        34  DCM       H2              1.2654031629        1.2224130656       -2.2015111320  CLST      34              1.0000000000
       169        34  DCM       CL1            -0.4476496841       -0.4484804349       -2.2045460887  CLST      34              1.0000000000
       170        34  DCM       CL2            -0.0388475894        1.6946821401       -0.2525129064  CLST      34              1.0000000000
       171        35  DCM       C              -1.9675906752        0.7112511445       -0.6313149888  CLST      35              1.0000000000
       172        35  DCM       H1             -2.2047817065        1.6621239408       -1.1527107618  CLST      35              1.0000000000
       173        35  DCM       H2             -1.2166720671        0.1213718832       -1.1981552379  CLST      35              1.0000000000
       174        35  DCM       CL1            -1.3096095025        1.0844533567        0.9870972438  CLST      35              1.0000000000
       175        35  DCM       CL2            -3.4653231789       -0.2506809700       -0.4751960257  CLST      35              1.0000000000
       176        36  DCM       C              -1.0983958377        3.0851876491        0.4095187136  CLST      36              1.0000000000
       177        36  DCM       H1             -1.9303656784        2.5104734002        0.8688788630  CLST      36              1.0000000000
       178        36  DCM       H2             -0.7791374010        3.9209972193        1.0673780262  CLST      36              1.0000000000
       179        36  DCM       CL1             0.2901563065        1.9894494387        0.1469597690  CLST      36              1.0000000000
       180        36  DCM       CL2            -1.6471630620        3.7552316059       -1.1539723425  CLST      36              1.0000000000
       181        37  DCM       C               2.1068720252       -0.1867774972        2.8462892008  CLST      37              1.0000000000
       182        37  DCM       H1              1.3578675675       -0.0629349151        3.6569027975  CLST      37              1.0000000000
       183        37  DCM       H2              3.0561031708       -0.6070991641        3.2410095988  CLST      37              1.0000000000
       184        37  DCM       CL1             1.4474730419       -1.2975815276        1.6116894287  CLST      37              1.0000000000
       185        37  DCM       CL2             2.4381819718        1.4081335031        2.1115037697  CLST      37              1.0000000000
       186        38  DCM       C              -3.1189490854       -3.0455623028       -2.4326198361  CLST      38              1.0000000000
       187        38  DCM       H1             -3.2310344121       -2.5433099000       -1.4487438474  CLST      38              1.0000000000
       188        38  DCM       H2             -4.0568973031       -3.5596322604       -2.7296862077  CLST      38              1.0000000000
       189        38  DCM       CL1            -2.7103092119       -1.8198770686       -3.6678668365  CLST      38              1.0000000000
       190        38  DCM       CL2            -1.8077363945       -4.2554452377       -2.3198321938  CLST      38              1.0000000000
       191        39  DCM       C               1.3024869999       -2.3939079360        1.1858988462  CLST      39              1.0000000000
       192        39  DCM       H1              2.2512780777       -2.7301180447        0.7176300934  CLST      39              1.0000000000
       193        39  DCM       H2              0.6849418659       -1.8197275144        0.4644063564  CLST      39              1.0000000000
       194        39  DCM       CL1             0.3781537931       -3.8262608747        1.7230469996  CLST      39              1.0000000000
       195        39  DCM       CL2             1.6824926451       -1.3521102062        2.5881750961  CLST      39              1.0000000000
       196        40  DCM       C               1.1759708698       -0.3249195949       -2.1552790699  CLST      40              1.0000000000
       197        40  DCM       H1              0.9054932232       -1.3991362729       -2.0929910705  CLST      40              1.0000000000
       198        40  DCM       H2              0.3924182643        0.3125999539       -1.6948246054  CLST      40              1.0000000000
       199        40  DCM       CL1             2.7170220350       -0.0701889066       -1.2898502848  CLST      40              1.0000000000
       200        40  DCM       CL2             1.3574432296        0.1324238623       -3.8725788740  CLST      40              1.0000000000
       201        41  DCM       C               0.2164654011       -2.7227338687        2.2472776947  CLST      41              1.0000000000
       202        41  DCM       H1              0.2045179185       -2.0291660110        1.3801380939  CLST      41              1.0000000000
       203        41  DCM       H2             -0.7966359734       -3.1301394022        2.4482982590  CLST      41              1.0000000000
       204        41  DCM       CL1             1.3265170989       -4.0763547803        1.8922825743  CLST      41              1.0000000000
       205        41  DCM       CL2             0.7865544650       -1.8393195796        3.6930786317  CLST      41              1.0000000000
       206        42  DCM       C               2.3540256705       -1.8755300340       -0.3227879815  CLST      42              1.0000000000
       207        42  DCM       H1              2.0009521902       -1.4637956256        0.6463512146  CLST      42              1.0000000000
       208        42  DCM       H2              3.3460031118       -2.3627144911       -0.2121940373  CLST      42              1.0000000000
       209        42  DCM       CL1             1.1708566569       -3.0798369859       -0.9075963330  CLST      42              1.0000000000
       210        42  DCM       CL2             2.4852934531       -0.5434724109       -1.5059121934  CLST      42              1.0000000000
       211        43  DCM       C              -1.2642401365        3.1425990622        2.5935994236  CLST      43              1.0000000000
       212        43  DCM       H1             -1.4845033067        3.1462236431        1.5050847862  CLST      43              1.0000000000
       213        43  DCM       H2             -1.8839717715        3.8966175125        3.1235927558  CLST      43              1.0000000000
       214        43  DCM       CL1            -1.6230585724        1.5206579596        3.2483043899  CLST      43              1.0000000000
       215        43  DCM       CL2             0.4639554211        3.5222485016        2.8423593540  CLST      43              1.0000000000
       216        44  DCM       C              -1.8543859199       -1.6717471141        0.7344646101  CLST      44              1.0000000000
       217        44  DCM       H1             -1.2975874632       -0.7220773913        0.8775609967  CLST      44              1.0000000000
       218        44  DCM       H2             -2.1961837682       -2.0845854345        1.7071964348  CLST      44              1.0000000000
       219        44  DCM       CL1            -3.2804245134       -1.3586314293       -0.2960640677  CLST      44              1.0000000000
       220        44  DCM       CL2            -0.7796721489       -2.8590419194       -0.0601103194  CLST      44              1.0000000000
       221        45  DCM       C              -1.6422478104        3.0091859228        1.1338003215  CLST      45              1.0000000000
       222        45  DCM       H1             -1.4150582135        2.0332878364        0.6546848606  CLST      45              1.0000000000
       223        45  DCM       H2             -0.8680889623        3.2750716425        1.8842640978  CLST      45              1.0000000000
       224        45  DCM       CL1            -1.6927817163        4.2809188326       -0.1226608729  CLST      45              1.0000000000
       225        45  DCM       CL2            -3.2278645598        2.8966607369        1.9524820465  CLST      45              1.0000000000
       226        46  DCM       C               2.2198361946       -1.1040520672       -1.4783721716  CLST      46              1.0000000000
       227        46  DCM       H1              1.9440123783       -0.7475658950       -2.4920213052  CLST      46              1.0000000000
       228        46  DCM       H2              1.3759331639       -0.9759079322       -0.7701766450  CLST      46              1.0000000000
       229        46  DCM       CL1             2.6471844074       -2.8368057526       -1.5675162920  CLST      46              1.0000000000
       230        46  DCM       CL2             3.6216017687       -0.1654481334       -0.8864876685  CLST      46              1.0000000000
       231        47  DCM       C              -2.9202072511        1.0392103362       -0.8847980285  CLST      47              1.0000000000
       232        47  DCM       H1             -2.6520613464        1.8060834149       -1.6419097506  CLST      47              1.0000000000
       233        47  DCM       H2             -2.3258099284        1.1680835823        0.0437596356  CLST      47              1.0000000000
       234        47  DCM       CL1            -4.6541591574        1.1974489681       -0.4887456148  CLST      47              1.0000000000
       235        47  DCM       CL2            -2.6050565237       -0.5854330470       -1.5606187224  CLST      47              1.0000000000
       236        48  DCM       C              -2.5107084920       -0.2692188823        1.3616645422  CLST      48              1.0000000000
       237        48  DCM       H1             -1.6393946961       -0.1866340096        0.6782364966  CLST      48              1.0000000000
       238        48  DCM       H2             -2.8159954927       -1.3283007189        1.4913583809  CLST      48              1.0000000000
       239        48  DCM       CL1            -2.0705702240        0.4065898260        2.9569337164  CLST      48              1.0000000000
       240        48  DCM       CL2            -3.8818002238        0.6472355440        0.6710784418  CLST      48              1.0000000000
       241        49  DCM       C              -0.5450604080       -1.0927492963        0.9189380863  CLST      49              1.0000000000
       242        49  DCM       H1              0.3551409722       -0.5433633052        0.5707246153  CLST      49              1.0000000000
       243        49  DCM       H2             -0.6718352350       -2.0464785089        0.3633927696  CLST      49              1.0000000000
       244        49  DCM       CL1            -0.3813118744       -1.4442188049        2.6638987997  CLST      49              1.0000000000
       245        49  DCM       CL2            -1.9833555595       -0.0724722200        0.6491073197  CLST      49              1.0000000000
       246        50  DCM       C              -3.7021012067        2.1326913797        2.1905532628  CLST      50              1.0000000000
       247        50  DCM       H1             -3.8709749626        3.2176443071        2.3399245788  CLST      50              1.0000000000
       248        50  DCM       H2             -3.7215671468        1.5931346615        3.1602851564  CLST      50              1.0000000000
       249        50  DCM       CL1            -4.9949128096        1.4871531894        1.1424959062  CLST      50              1.0000000000
       250        50  DCM       CL2            -2.1102074355        1.9028515222        1.4131323778  CLST      50              1.0000000000
       251        51  DCM       C              -3.3301134174       -0.2459219928        1.5556938505  CLST      51              1.0000000000
       252        51  DCM       H1             -3.6645539501        0.4035870897        0.7192532175  CLST      51              1.0000000000
       253        51  DCM       H2             -3.1438499262        0.3506047775        2.4731758213  CLST      51              1.0000000000
       254        51  DCM       CL1            -4.6023946491       -1.4533025357        1.8982940969  CLST      51              1.0000000000
       255        51  DCM       CL2            -1.8179854248       -1.0739517040        1.0832538391  CLST      51              1.0000000000
       256        52  DCM       C               2.4158163167        1.8918714050       -0.2337462187  CLST      52              1.0000000000
       257        52  DCM       H1              3.1706177378        2.5387518285       -0.7276668547  CLST      52              1.0000000000
       258        52  DCM       H2              2.8835307092        1.2624803703        0.5516190029  CLST      52              1.0000000000
       259        52  DCM       CL1             1.1684648534        2.9257768630        0.5215049708  CLST      52              1.0000000000
       260        52  DCM       CL2             1.6672634563        0.8343264500       -1.4658810085  CLST      52              1.0000000000
       261        53  DCM       C              -2.5462210029        0.5371862531       -2.4420882275  CLST      53              1.0000000000
       262        53  DCM       H1             -3.0126765478        1.0807855599       -1.5937221651  CLST      53              1.0000000000
       263        53  DCM       H2             -2.9023517302        0.9393352184       -3.4142415431  CLST      53              1.0000000000
       264        53  DCM       CL1            -2.9770623092       -1.1930050725       -2.3336718480  CLST      53              1.0000000000
       265        53  DCM       CL2            -0.7702068832        0.7150422771       -2.3472651934  CLST      53              1.0000000000
       266        54  DCM       C               0.6727485928        1.8776633016        2.1519559817  CLST      54              1.0000000000
       267        54  DCM       H1              1.5917989831        2.2179232325        2.6727047236  CLST      54              1.0000000000
       268        54  DCM       H2              0.9166760315        1.1891286514        1.3170603409  CLST      54              1.0000000000
       269        54  DCM       CL1            -0.1817592422        3.3016051013        1.4960839197  CLST      54              1.0000000000
       270        54  DCM       CL2            -0.3755390238        1.0249959670        3.3185546815  CLST      54              1.0000000000
       271        55  DCM       C              -1.6626745881       -0.8012098353       -0.8305520042  CLST      55              1.0000000000
       272        55  DCM       H1             -1.1934251141       -1.6311046592       -0.2626700641  CLST      55              1.0000000000
       273        55  DCM       H2             -1.0342497155        0.1130878831       -0.7914258447  CLST      55              1.0000000000
       274        55  DCM       CL1            -1.8525140119       -1.3075054043       -2.5335874989  CLST      55              1.0000000000
       275        55  DCM       CL2            -3.2633064573       -0.4422746119       -0.1209048439  CLST      55              1.0000000000
       276        56  DCM       C               0.4773621179        2.3905359055       -0.5874554277  CLST      56              1.0000000000
       277        56  DCM       H1             -0.1995414707        1.5459489264       -0.8306539568  CLST      56              1.0000000000
       278        56  DCM       H2              0.8890866506        2.2894326983        0.4382035837  CLST      56              1.0000000000
       279        56  DCM       CL1             1.8268281836        2.4049151949       -1.7583657400  CLST      56              1.0000000000
       280        56  DCM       CL2            -0.4429986142        3.9180506872       -0.6994620944  CLST      56              1.0000000000
       281        57  DCM       C               2.4261515827       -1.9365107141        1.8606818635  CLST      57              1.0000000000
       282        57  DCM       H1              1.7180742265       -2.7110345922        1.5005787959  CLST      57              1.0000000000
       283        57  DCM       H2              3.4248784718       -2.0576319363        1.3901704591  CLST      57              1.0000000000
       284        57  DCM       CL1             2.5938738723       -2.0934897044        3.6309591037  CLST      57              1.0000000000
       285        57  DCM       CL2             1.7796518427       -0.3201393538        1.4555343841  CLST      57              1.0000000000
       286        58  DCM       C              -0.9796626235       -2.0982136836       -1.4792047139  CLST      58              1.0000000000
       287        58  DCM       H1             -0.9047040079       -1.4327725160       -2.3650438951  CLST      58              1.0000000000
       288        58  DCM       H2             -0.8138274076       -1.5324709666       -0.5378820246  CLST      58              1.0000000000
       289        58  DCM       CL1            -2.6111285741       -2.8276872217       -1.4375953494  CLST      58              1.0000000000
       290        58  DCM       CL2             0.2573739751       -3.3827534102       -1.6125054993  CLST      58              1.0000000000
       291        59  DCM       C               2.4646173728        0.9731562410       -2.3674211843  CLST      59              1.0000000000
       292        59  DCM       H1              3.4169260800        1.3145606329       -1.9098516424  CLST      59              1.0000000000
       293        59  DCM       H2              1.5886456852        1.4131615212       -1.8455762661  CLST      59              1.0000000000
       294        59  DCM       CL1             2.4303591785        1.4790480779       -4.0812808130  CLST      59              1.0000000000
       295        59  DCM       CL2             2.3717017439       -0.8081579743       -2.2554408632  CLST      59              1.0000000000
       296        60  DCM       C               2.5145176983        0.8315913692        1.1249651326  CLST      60              1.0000000000
       297        60  DCM       H1              3.3963742995        0.2514478766        0.7787633994  CLST      60              1.0000000000
       298        60  DCM       H2              2.7857638716        1.8892267964        1.3272313180  CLST      60              1.0000000000
       299        60  DCM       CL1             1.2576324018        0.7914483760       -0.1429584722  CLST      60              1.0000000000
       300        60  DCM       CL2             1.8856012636        0.0936464056        2.6264556061  CLST      60              1.0000000000
       301        61  DCM       C               0.6687068637        2.5716640728        1.0752409937  CLST      61              1.0000000000
       302        61  DCM       H1              0.2434760929        3.5108689099        1.4809873007  CLST      61              1.0000000000
       303        61  DCM       H2              0.0478272896        1.6976646447        1.3603693931  CLST      61              1.0000000000
       304        61  DCM       CL1             0.7226869760        2.6802338323       -0.7058125602  CLST      61              1.0000000000
       305        61  DCM       CL2             2.3220054687        2.3527020360        1.7193590186  CLST      61              1.0000000000
       306        62  DCM       C              -0.8115397981       -1.9439028490        2.3359057350  CLST      62              1.0000000000
       307        62  DCM       H1             -1.4583546416       -1.4923932183        3.1168741660  CLST      62              1.0000000000
       308        62  DCM       H2             -1.2934163136       -2.8354489578        1.8818531409  CLST      62              1.0000000000
       309        62  DCM       CL1            -0.5118792521       -0.7306425375        1.0571466568  CLST      62              1.0000000000
       310        62  DCM       CL2             0.7387005169       -2.4356650757        3.0790779799  CLST      62              1.0000000000
       311        63  DCM       C              -0.7194063131        3.1156927358       -0.9587759104  CLST      63              1.0000000000
       312        63  DCM       H1             -0.1161680005        4.0107990616       -0.7000801660  CLST      63              1.0000000000
       313        63  DCM       H2             -1.7892006569        3.3794806057       -1.0899228279  CLST      63              1.0000000000
       314        63  DCM       CL1            -0.1016051234        2.4162101194       -2.4839289735  CLST      63              1.0000000000
       315        63  DCM       CL2            -0.5745459640        1.9185376008        0.3597248774  CLST      63              1.0000000000
       316        64  DCM       C              -2.2253152771       -1.7794338786       -1.2983866697  CLST      64              1.0000000000
       317        64  DCM       H1             -2.9828602032       -2.1693299314       -0.5844440514  CLST      64              1.0000000000
       318        64  DCM       H2             -1.1959934619       -2.0405753322       -0.9708460537  CLST      64              1.0000000000
       319        64  DCM       CL1            -2.5197922707       -2.4931591922       -2.9112455366  CLST      64              1.0000000000
       320        64  DCM       CL2            -2.3691654034       -0.0000629796       -1.3837808163  CLST      64              1.0000000000
       321        65  DCM       C               3.4247802810        0.8934561265        1.2800594967  CLST      65              1.0000000000
       322        65  DCM       H1              3.7739568261        0.3715700503        2.1960916583  CLST      65              1.0000000000
       323        65  DCM       H2              4.1953721547        1.5979348489        0.9025818606  CLST      65              1.0000000000
       324        65  DCM       CL1             3.0727952755       -0.3206278460        0.0166701798  CLST      65              1.0000000000
       325        65  DCM       CL2             1.9399807157        1.8103439181        1.6621097691  CLST      65              1.0000000000
       326        66  DCM       C              -0.3998860197       -0.1855188958        1.9262189994  CLST      66              1.0000000000
       327        66  DCM       H1             -0.9869495715       -1.1146989704        1.7711930666  CLST      66              1.0000000000
       328        66  DCM       H2             -0.7847504900        0.6407484267        1.2939126296  CLST      66              1.0000000000
       329        66  DCM       CL1            -0.5184425062        0.2981795863        3.6418547682  CLST      66              1.0000000000
       330        66  DCM       CL2             1.3075710956       -0.4981566818        1.5021114162  CLST      66              1.0000000000
       331        67  DCM       C              -2.6548158079       -0.9314115570       -2.1195912702  CLST      67              1.0000000000
       332        67  DCM       H1             -2.8230328419       -1.8737890121       -2.6824443063  CLST      67              1.0000000000
       333        67  DCM       H2             -2.5992939281       -0.0600562318       -2.8053355690  CLST      67              1.0000000000
       334        67  DCM       CL1            -1.1169303817       -1.0596716587       -1.2164709002  CLST      67              1.0000000000
       335        67  DCM       CL2            -4.0096630758       -0.6879472816       -0.9788473359  CLST      67              1.0000000000
       336        68  DCM       C              -1.7963289376       -2.6259579386        2.0547282930  CLST      68              1.0000000000
       337        68  DCM       H1             -2.8357206929       -2.2815019327        1.8715031972  CLST      68              1.0000000000
       338        68  DCM       H2             -1.3400763505       -2.0817764795        2.9090809623  CLST      68              1.0000000000
       339        68  DCM       CL1            -1.8199571065       -4.3730210860        2.4263647736  CLST      68              1.0000000000
       340        68  DCM       CL2            -0.8180516663       -2.3293106006        0.5882493498  CLST      68              1.0000000000
       341        69  DCM       C              -0.8464463433        2.0104101034       -1.4803871525  CLST      69              1.0000000000
       342        69  DCM       H1             -0.3314418802        2.3017964979       -0.5422545269  CLST      69              1.0000000000
       343        69  DCM       H2             -1.9347244242        1.8832678564       -1.3069956310  CLST      69              1.0000000000
       344        69  DCM       CL1            -0.5981532575        3.2895639056       -2.7029321554  CLST      69              1.0000000000
       345        69  DCM       CL2            -0.1654841096        0.4665296458       -2.0696713775  CLST      69              1.0000000000
       346        70  DCM       C              -1.7503860530        1.0565760748       -0.4600133852  CLST      70              1.0000000000
       347        70  DCM       H1             -2.7103829356        1.4555200434       -0.0703015240  CLST      70              1.0000000000
       348        70  DCM       H2             -1.4469954143        0.1375109547        0.0860854469  CLST      70              1.0000000000
       349        70  DCM       CL1            -1.9493505964        0.6623191249       -2.1923044729  CLST      70              1.0000000000
       350        70  DCM       CL2            -0.4800552654        2.2987218933       -0.2579064407  CLST      70              1.0000000000
       351        71  DCM       C              -2.6335711529        0.1751337539        0.2610784231  CLST      71              1.0000000000
       352        71  DCM       H1             -2.8295942331       -0.6364117503        0.9914252940  CLST      71              1.0000000000
       353        71  DCM       H2             -2.5297910998        1.1550544660        0.7746006393  CLST      71              1.0000000000
       354        71  DCM       CL1            -3.9882575869        0.2505985620       -0.9021489426  CLST      71              1.0000000000
       355        71  DCM       CL2            -1.1182477555       -0.1931270106       -0.6039428755  CLST      71              1.0000000000
       356        72  DCM       C               2.6792520811       -2.5697127535        1.4511848790  CLST      72              1.0000000000
       357        72  DCM       H1              2.7851615434       -3.6737350118        1.5035112980  CLST      72              1.0000000000
       358        72  DCM       H2              2.1158063990       -2.2723202463        0.5426373772  CLST      72              1.0000000000
       359        72  DCM       CL1             1.8022591339       -1.9915822619        2.8969398838  CLST      72              1.0000000000
       360        72  DCM       CL2             4.3036005855       -1.8309818000        1.4006530122  CLST      72              1.0000000000
       361        73  DCM       C              -2.1656355036       -1.8219480760       -0.8589691953  CLST      73              1.0000000000
       362        73  DCM       H1             -2.6354324771       -2.5230800988       -0.1376998077  CLST      73              1.0000000000
       363        73  DCM       H2             -2.8569610189       -0.9913940803       -1.1174042138  CLST      73              1.0000000000
       364        73  DCM       CL1            -0.6833272366       -1.1407356365       -0.1297959353  CLST      73              1.0000000000
       365        73  DCM       CL2            -1.7527518117       -2.7165722316       -2.3468694986  CLST      73              1.0000000000
       366        74  DCM       C              -2.7680468013        2.7249354294       -2.3066269314  CLST      74              1.0000000000
       367        74  DCM       H1             -1.8087267039        3.1228605973       -2.7005213943  CLST      74              1.0000000000
       368        74  DCM       H2             -3.2257771727        2.0083675590       -3.0213823018  CLST      74              1.0000000000
       369        74  DCM       CL1            -2.4573953291        1.8842134058       -0.7597246099  CLST      74              1.0000000000
       370        74  DCM       CL2            -3.8979955488        4.0857512690       -2.0420045259  CLST      74              1.0000000000
       371        75  DCM       C              -1.3408948227        0.7632198031       -2.7084089973  CLST      75              1.0000000000
       372        75  DCM       H1             -2.4256161310        0.9917517770       -2.6403646264  CLST      75              1.0000000000
       373        75  DCM       H2             -0.7994155590        1.5590616696       -3.2589962535  CLST      75              1.0000000000
       374        75  DCM       CL1            -1.1242115385       -0.7875721656       -3.5673705520  CLST      75              1.0000000000
       375        75  DCM       CL2            -0.6630116544        0.6447111907       -1.0595433302  CLST      75              1.0000000000
       376        76  DCM       C              -2.5366269655        0.6306052380        1.8283123012  CLST      76              1.0000000000
       377        76  DCM       H1             -2.1410440749       -0.3804080191        2.0532574669  CLST      76              1.0000000000
       378        76  DCM       H2             -1.8184068538        1.2176639171        1.2227530451  CLST      76              1.0000000000
       379        76  DCM       CL1            -4.0662429544        0.4632037023        0.9211729434  CLST      76              1.0000000000
       380        76  DCM       CL2            -2.8302815119        1.4891582160        3.3673645579  CLST      76              1.0000000000
       381        77  DCM       C               0.9812638071        2.4487082264        1.8592906584  CLST      77              1.0000000000
       382        77  DCM       H1              1.3304765490        3.4627595005        2.1449580152  CLST      77              1.0000000000
       383        77  DCM       H2             -0.0643529593        2.4776804914        1.4865508974  CLST      77              1.0000000000
       384        77  DCM       CL1             2.0447825804        1.8105404049        0.5711855388  CLST      77              1.0000000000
       385        77  DCM       CL2             1.0595188587        1.3885326865        3.2965666447  CLST      77              1.0000000000
       386        78  DCM       C              -0.6582656858       -2.0239839998       -2.4874961388  CLST      78              1.0000000000
       387        78  DCM       H1             -0.8711880424       -2.0762321760       -3.5745865279  CLST      78              1.0000000000
       388        78  DCM       H2             -0.9806729356       -2.9517792426       -1.9709567178  CLST      78              1.0000000000
       389        78  DCM       CL1             1.0995773639       -1.8003599999       -2.2447353603  CLST      78              1.0000000000
       390        78  DCM       CL2            -1.5448468079       -0.6346737140       -1.7961296173  CLST      78              1.0000000000
       391        79  DCM       C               0.5092028009       -0.2115911337       -3.5758870359  CLST      79              1.0000000000
       392        79  DCM       H1             -0.4183471731       -0.3573152431       -2.9832939231  CLST      79              1.0000000000
       393        79  DCM       H2              0.8272818607       -1.1629974987       -4.0515621779  CLST      79              1.0000000000
       394        79  DCM       CL1             0.2027802548        1.0081944173       -4.8449725107  CLST      79              1.0000000000
       395        79  DCM       CL2             1.8116332597        0.3579858948       -2.4941259670  CLST      79              1.0000000000
       396        80  DCM       C               0.3356823208        0.7448583791        2.6938317106  CLST      80              1.0000000000
       397        80  DCM       H1              0.2335639779        1.8231451853        2.9366122174  CLST      80              1.0000000000
       398        80  DCM       H2             -0.5328540709        0.1655085450        3.0719999429  CLST      80              1.0000000000
       399        80  DCM       CL1             0.4324115656        0.5564391572        0.9181179312  CLST      80              1.0000000000
       400        80  DCM       CL2             1.8286063511        0.1199881962        3.4534165201  CLST      80              1.0000000000
       401        81  DCM       C               2.6551997702       -1.0842002143       -0.6206571052  CLST      81              1.0000000000
       402        81  DCM       H1              2.1602803798       -1.7282527242        0.1363744447  CLST      81              1.0000000000
       403        81  DCM       H2              2.7999609177       -1.6302114081       -1.5760233469  CLST      81              1.0000000000
       404        81  DCM       CL1             1.6361239054        0.3553976929       -0.9158275316  CLST      81              1.0000000000
       405        81  DCM       CL2             4.2537856987       -0.5800148020       -0.0006948755  CLST      81              1.0000000000
       406        82  DCM       C               1.4025819556        1.5708306407        2.8379494672  CLST      82              1.0000000000
       407        82  DCM       H1              1.3263160984        2.6559568499        3.0642289428  CLST      82              1.0000000000
       408        82  DCM       H2              2.4448970944        1.2076856408        2.9668780775  CLST      82              1.0000000000
       409        82  DCM       CL1             0.3329305220        0.6701684379        3.9510094562  CLST      82              1.0000000000
       410        82  DCM       CL2             0.8928335219        1.2930744670        1.1472403386  CLST      82              1.0000000000
       411        83  DCM       C               1.9698663910        1.7481349367        0.2090210487  CLST      83              1.0000000000
       412        83  DCM       H1              1.2218036260        0.9311842310        0.2636458980  CLST      83              1.0000000000
       413        83  DCM       H2              1.6756332985        2.6004904141        0.8554421442  CLST      83              1.0000000000
       414        83  DCM       CL1             2.0961209237        2.3177824574       -1.4795092288  CLST      83              1.0000000000
       415        83  DCM       CL2             3.5510801045        1.1185367999        0.7541279691  CLST      83              1.0000000000
       416        84  DCM       C               0.5549868659        0.7283721869        2.2850351443  CLST      84              1.0000000000
       417        84  DCM       H1             -0.4292377327        0.2700435721        2.0494869908  CLST      84              1.0000000000
       418        84  DCM       H2              0.8842691825        1.4087881947        1.4724562886  CLST      84              1.0000000000
       419        84  DCM       CL1             0.4184341185        1.6589153409        3.8043787729  CLST      84              1.0000000000
       420        84  DCM       CL2             1.7659753520       -0.5692504304        2.4818180555  CLST      84              1.0000000000
       421        85  DCM       C               3.4359264414        1.7448972722        2.1877264815  CLST      85              1.0000000000
       422        85  DCM       H1              4.2181588436        1.5798528816        2.9589127743  CLST      85              1.0000000000
       423        85  DCM       H2              3.6106463041        2.6934468488        1.6371001069  CLST      85              1.0000000000
       424        85  DCM       CL1             3.4691485906        0.3869206776        1.0260441072  CLST      85              1.0000000000
       425        85  DCM       CL2             1.8377228884        1.8209061006        2.9856557142  CLST      85              1.0000000000
       426        86  DCM       C               2.9363270762        0.9474939197        0.3151689894  CLST      86              1.0000000000
       427        86  DCM       H1              3.6776409349        1.0616627659        1.1340564026  CLST      86              1.0000000000
       428        86  DCM       H2              3.0181378446        1.7783740457       -0.4150937125  CLST      86              1.0000000000
       429        86  DCM       CL1             3.2336607042       -0.6004130500       -0.5279268449  CLST      86              1.0000000000
       430        86  DCM       CL2             1.2912291563        0.9541165611        1.0130626599  CLST      86              1.0000000000
       431        87  DCM       C               1.7369266683       -2.7075478332        0.4367046854  CLST      87              1.0000000000
       432        87  DCM       H1              1.1916085588       -1.7605843673        0.6343838116  CLST      87              1.0000000000
       433        87  DCM       H2              2.2391620010       -3.0745351926        1.3569770015  CLST      87              1.0000000000
       434        87  DCM       CL1             0.5730988149       -3.9414678687       -0.1263808007  CLST      87              1.0000000000
       435        87  DCM       CL2             2.9700119465       -2.4188195463       -0.8240510335  CLST      87              1.0000000000
       436        88  DCM       C               0.7695960590       -1.9487423914       -0.1884183455  CLST      88              1.0000000000
       437        88  DCM       H1              0.8044856726       -1.9541371170       -1.2988996655  CLST      88              1.0000000000
       438        88  DCM       H2              0.8888897813       -2.9744691634        0.2214092483  CLST      88              1.0000000000
       439        88  DCM       CL1             2.0916993503       -0.9153560004        0.4281718061  CLST      88              1.0000000000
       440        88  DCM       CL2            -0.8075897994       -1.2943348665        0.3374929728  CLST      88              1.0000000000
       441        89  DCM       C              -0.3689087249       -0.8399566185        2.1697890950  CLST      89              1.0000000000
       442        89  DCM       H1              0.0689368238       -0.8123822264        3.1896598106  CLST      89              1.0000000000
       443        89  DCM       H2             -1.4412172437       -1.1273502360        2.2032266070  CLST      89              1.0000000000
       444        89  DCM       CL1            -0.2258461949        0.7811269049        1.4344906864  CLST      89              1.0000000000
       445        89  DCM       CL2             0.5251443954       -2.0313573389        1.1814606964  CLST      89              1.0000000000
       446        90  DCM       C               2.4695812379        2.2509504718       -2.9024008558  CLST      90              1.0000000000
       447        90  DCM       H1              1.3753037104        2.0655345045       -2.8671885107  CLST      90              1.0000000000
       448        90  DCM       H2              3.0209407737        1.3414353921       -3.2222193391  CLST      90              1.0000000000
       449        90  DCM       CL1             2.7986518714        3.5690059850       -4.0650120017  CLST      90              1.0000000000
       450        90  DCM       CL2             3.0319214029        2.7239025106       -1.2734157968  CLST      90              1.0000000000
       451        91  DCM       C               0.3286475468       -3.5509521935        0.3181256969  CLST      91              1.0000000000
       452        91  DCM       H1             -0.0060006929       -3.7710236150        1.3534892706  CLST      91              1.0000000000
       453        91  DCM       H2              1.3825286084       -3.2039030673        0.3041385454  CLST      91              1.0000000000
       454        91  DCM       CL1             0.2029852312       -5.0398817211       -0.6560917931  CLST      91              1.0000000000
       455        91  DCM       CL2            -0.7206075248       -2.2801818061       -0.3772019288  CLST      91              1.0000000000
       456        92  DCM       C              -1.5389190725       -2.3263210420       -2.8012124167  CLST      92              1.0000000000
       457        92  DCM       H1             -1.9521889211       -3.3117139461       -3.1041901673  CLST      92              1.0000000000
       458        92  DCM       H2             -2.2672613670       -1.5109671745       -2.9962710149  CLST      92              1.0000000000
       459        92  DCM       CL1            -1.1639698224       -2.3650108826       -1.0536660284  CLST      92              1.0000000000
       460        92  DCM       CL2            -0.0476037963       -2.0095690412       -3.7358138595  CLST      92              1.0000000000
       461        93  DCM       C              -2.5461779803       -2.7278676906        0.3092608124  CLST      93              1.0000000000
       462        93  DCM       H1             -2.7618961837       -3.3869664596        1.1757941408  CLST      93              1.0000000000
       463        93  DCM       H2             -1.4616679651       -2.7247385939        0.0698762537  CLST      93              1.0000000000
       464        93  DCM       CL1            -3.4576644786       -3.3183023256       -1.1104130623  CLST      93              1.0000000000
       465        93  DCM       CL2            -3.0586218368       -1.0641580142        0.7083412736  CLST      93              1.0000000000
       466        94  DCM       C               1.4727019019       -0.2211968551       -1.6722142410  CLST      94              1.0000000000
       467        94  DCM       H1              2.5051175974        0.1513767771       -1.5106207989  CLST      94              1.0000000000
       468        94  DCM       H2              1.0287919944       -0.6007572555       -0.7281486514  CLST      94              1.0000000000
       469        94  DCM       CL1             0.4660855233        1.1126897498       -2.3034622257  CLST      94              1.0000000000
       470        94  DCM       CL2             1.5249976648       -1.5469381921       -2.8655905082  CLST      94              1.0000000000
       471        95  DCM       C               3.0084399789       -1.9654844512        1.4304335795  CLST      95              1.0000000000
       472        95  DCM       H1              2.1844790648       -1.3900832530        1.9028453867  CLST      95              1.0000000000
       473        95  DCM       H2              2.8432426933       -2.0807267982        0.3391894336  CLST      95              1.0000000000
       474        95  DCM       CL1             4.5473914195       -1.0935715762        1.6909092268  CLST      95              1.0000000000
       475        95  DCM       CL2             3.0883240097       -3.5865088835        2.1820144707  CLST      95              1.0000000000
