* INITIAL
*  DATE:     6/28/26      2: 4:16      CREATED BY USER: boittier
*
       490  EXT
         1         1  DCM       C              -4.2116762937      -11.5024606686       -1.9026021122  CLST      1               1.0000000000
         2         1  DCM       H1             -3.9435526099      -10.7660587283       -1.1156459181  CLST      1               1.0000000000
         3         1  DCM       H2             -4.5375891596      -12.4643017167       -1.4533885201  CLST      1               1.0000000000
         4         1  DCM       CL1            -2.7836680257      -11.7990536859       -2.9347503796  CLST      1               1.0000000000
         5         1  DCM       CL2            -5.5472179088      -10.8399012116       -2.8881361511  CLST      1               1.0000000000
         6         2  DCM       C               2.4777388985       -0.1446371834        7.6292167928  CLST      2               1.0000000000
         7         2  DCM       H1              1.7117821908        0.5887455317        7.9534167086  CLST      2               1.0000000000
         8         2  DCM       H2              2.8483262436        0.0894043137        6.6101950661  CLST      2               1.0000000000
         9         2  DCM       CL1             3.8521615095       -0.0907801844        8.7693580114  CLST      2               1.0000000000
        10         2  DCM       CL2             1.7492463493       -1.7767169764        7.6293281327  CLST      2               1.0000000000
        11         3  DCM       C              -6.1025018886       -4.9891545436        4.0532708906  CLST      3               1.0000000000
        12         3  DCM       H1             -5.9135290519       -5.0709295143        2.9629355663  CLST      3               1.0000000000
        13         3  DCM       H2             -6.9245486570       -4.2717918912        4.2614848647  CLST      3               1.0000000000
        14         3  DCM       CL1            -6.5590142938       -6.5985307129        4.6791357094  CLST      3               1.0000000000
        15         3  DCM       CL2            -4.6137257263       -4.4218529685        4.8638192772  CLST      3               1.0000000000
        16         4  DCM       C               1.8012813969        1.1875313313       -2.3022864055  CLST      4               1.0000000000
        17         4  DCM       H1              1.9817174652        0.1461133229       -1.9617849462  CLST      4               1.0000000000
        18         4  DCM       H2              1.9830620886        1.9126414015       -1.4813793994  CLST      4               1.0000000000
        19         4  DCM       CL1             2.8921405817        1.5610123463       -3.6659723103  CLST      4               1.0000000000
        20         4  DCM       CL2             0.1061993175        1.3330237979       -2.8399102833  CLST      4               1.0000000000
        21         5  DCM       C               5.7173968495        4.2361134415        2.9317050548  CLST      5               1.0000000000
        22         5  DCM       H1              5.3918553924        3.8268064429        1.9521746137  CLST      5               1.0000000000
        23         5  DCM       H2              4.8977995391        4.1879596035        3.6775934166  CLST      5               1.0000000000
        24         5  DCM       CL1             7.1003218671        3.2752231013        3.5261434664  CLST      5               1.0000000000
        25         5  DCM       CL2             6.2082661147        5.9414117749        2.7190726056  CLST      5               1.0000000000
        26         6  DCM       C               9.2753710808       -4.2740390483        2.8504613518  CLST      6               1.0000000000
        27         6  DCM       H1              8.6656834049       -5.1973197024        2.9428793562  CLST      6               1.0000000000
        28         6  DCM       H2             10.3574379709       -4.4974701485        2.9581942455  CLST      6               1.0000000000
        29         6  DCM       CL1             8.9896565995       -3.5504342781        1.2425050253  CLST      6               1.0000000000
        30         6  DCM       CL2             8.7855720406       -3.1262428755        4.1298275339  CLST      6               1.0000000000
        31         7  DCM       C              -3.7618976704        4.5127232784        5.6188726558  CLST      7               1.0000000000
        32         7  DCM       H1             -4.8461912072        4.2730610357        5.6423932859  CLST      7               1.0000000000
        33         7  DCM       H2             -3.2899914511        4.1343271023        4.6885256101  CLST      7               1.0000000000
        34         7  DCM       CL1            -3.5521678991        6.2853080246        5.7006265607  CLST      7               1.0000000000
        35         7  DCM       CL2            -2.9653305333        3.7465679569        7.0219155379  CLST      7               1.0000000000
        36         8  DCM       C             -12.4611854710       -2.1497675212       -0.6909030345  CLST      8               1.0000000000
        37         8  DCM       H1            -12.7788422484       -1.0912729228       -0.5894442565  CLST      8               1.0000000000
        38         8  DCM       H2            -11.8849548387       -2.4747086064        0.1985313521  CLST      8               1.0000000000
        39         8  DCM       CL1           -13.9088186143       -3.1842937758       -0.8443009003  CLST      8               1.0000000000
        40         8  DCM       CL2           -11.4340858068       -2.3195352663       -2.1436305139  CLST      8               1.0000000000
        41         9  DCM       C             -10.6742295547       -5.2469081948       -0.0418929285  CLST      9               1.0000000000
        42         9  DCM       H1            -11.6809062844       -5.0192130854        0.3658879599  CLST      9               1.0000000000
        43         9  DCM       H2            -10.0842845070       -4.3197361010       -0.1936479628  CLST      9               1.0000000000
        44         9  DCM       CL1            -9.8082912039       -6.3112792501        1.1040741312  CLST      9               1.0000000000
        45         9  DCM       CL2           -10.8657881800       -6.0672064884       -1.6169087818  CLST      9               1.0000000000
        46        10  DCM       C              13.4664447577       -4.9775288901       -0.6230642073  CLST      10              1.0000000000
        47        10  DCM       H1             14.5301079381       -4.6797702071       -0.7361793238  CLST      10              1.0000000000
        48        10  DCM       H2             13.3766612793       -6.0645758675       -0.4133357292  CLST      10              1.0000000000
        49        10  DCM       CL1            12.7453152844       -4.0610043533        0.7312153952  CLST      10              1.0000000000
        50        10  DCM       CL2            12.5948629596       -4.6035585814       -2.1379452353  CLST      10              1.0000000000
        51        11  DCM       C               2.3935249375       -5.6101358884        0.8765856272  CLST      11              1.0000000000
        52        11  DCM       H1              2.4371741468       -6.1929659540       -0.0667894173  CLST      11              1.0000000000
        53        11  DCM       H2              3.2842532995       -4.9574929746        0.9795090517  CLST      11              1.0000000000
        54        11  DCM       CL1             0.9208213661       -4.5992051797        0.8699648386  CLST      11              1.0000000000
        55        11  DCM       CL2             2.3362370012       -6.7438726836        2.2534255100  CLST      11              1.0000000000
        56        12  DCM       C              19.5807113080       -0.5984421888        1.9138507545  CLST      12              1.0000000000
        57        12  DCM       H1             18.4766338446       -0.5096583682        1.9838146076  CLST      12              1.0000000000
        58        12  DCM       H2             20.0087826074       -0.9934287946        2.8592155951  CLST      12              1.0000000000
        59        12  DCM       CL1            19.9888000415       -1.7107636444        0.5749881306  CLST      12              1.0000000000
        60        12  DCM       CL2            20.2701542428        1.0195592541        1.5918769204  CLST      12              1.0000000000
        61        13  DCM       C               1.9587825360        0.2986283014       -8.0475580273  CLST      13              1.0000000000
        62        13  DCM       H1              1.4992904360       -0.6798693464       -8.3013999719  CLST      13              1.0000000000
        63        13  DCM       H2              1.9619980682        0.9783232066       -8.9256920891  CLST      13              1.0000000000
        64        13  DCM       CL1             1.0269706379        1.0576235424       -6.7264127598  CLST      13              1.0000000000
        65        13  DCM       CL2             3.6421311022        0.0293091281       -7.5148414864  CLST      13              1.0000000000
        66        14  DCM       C              -2.6351683339        0.4380430699       -7.1745173719  CLST      14              1.0000000000
        67        14  DCM       H1             -3.6401713705        0.9086040807       -7.1872628331  CLST      14              1.0000000000
        68        14  DCM       H2             -1.8747688180        1.1126375343       -7.6229908957  CLST      14              1.0000000000
        69        14  DCM       CL1            -2.1797952715        0.0894419246       -5.4841304728  CLST      14              1.0000000000
        70        14  DCM       CL2            -2.6835123017       -1.0862697692       -8.1059380300  CLST      14              1.0000000000
        71        15  DCM       C              -8.7325671689        1.5669052095        4.1662307875  CLST      15              1.0000000000
        72        15  DCM       H1             -8.0305723784        0.9862920504        4.7996697304  CLST      15              1.0000000000
        73        15  DCM       H2             -8.9896419837        2.5377170269        4.6403884577  CLST      15              1.0000000000
        74        15  DCM       CL1            -7.9748159942        1.8808417255        2.5817983708  CLST      15              1.0000000000
        75        15  DCM       CL2           -10.2216248049        0.6122437625        3.9327211958  CLST      15              1.0000000000
        76        16  DCM       C             -14.7945762213        3.4791587696        1.0074569080  CLST      16              1.0000000000
        77        16  DCM       H1            -14.6145644612        2.5166905532        0.4832180981  CLST      16              1.0000000000
        78        16  DCM       H2            -15.8284542791        3.8418759235        0.8300633987  CLST      16              1.0000000000
        79        16  DCM       CL1           -14.5519831820        3.2390200222        2.7621382582  CLST      16              1.0000000000
        80        16  DCM       CL2           -13.6368100690        4.6972544410        0.3991796180  CLST      16              1.0000000000
        81        17  DCM       C               6.0270489784       -7.8647497143        1.4114855203  CLST      17              1.0000000000
        82        17  DCM       H1              5.0851882683       -7.7104802088        1.9774684491  CLST      17              1.0000000000
        83        17  DCM       H2              6.0182291980       -8.8414953807        0.8830583805  CLST      17              1.0000000000
        84        17  DCM       CL1             6.2011223208       -6.5515185212        0.2121609948  CLST      17              1.0000000000
        85        17  DCM       CL2             7.4002991774       -7.8306672702        2.5542834621  CLST      17              1.0000000000
        86        18  DCM       C             -11.2952713997        1.7457581347       -1.0879567634  CLST      18              1.0000000000
        87        18  DCM       H1            -11.2122608515        0.7597274023       -1.5916084245  CLST      18              1.0000000000
        88        18  DCM       H2            -12.0548467155        2.3869600700       -1.5839803242  CLST      18              1.0000000000
        89        18  DCM       CL1           -11.7667961746        1.4929242277        0.6167721970  CLST      18              1.0000000000
        90        18  DCM       CL2            -9.7077526583        2.5586419871       -1.1581751168  CLST      18              1.0000000000
        91        19  DCM       C              -0.8803362939        3.6813711553       -5.2727768330  CLST      19              1.0000000000
        92        19  DCM       H1             -1.1893596381        2.6605705145       -4.9758832161  CLST      19              1.0000000000
        93        19  DCM       H2              0.2241498032        3.7546585657       -5.3653807038  CLST      19              1.0000000000
        94        19  DCM       CL1            -1.6331499040        4.0712385394       -6.8450264385  CLST      19              1.0000000000
        95        19  DCM       CL2            -1.4380259478        4.8256971855       -4.0223121026  CLST      19              1.0000000000
        96        20  DCM       C              -4.6197514485        3.1966391556       -3.2901773912  CLST      20              1.0000000000
        97        20  DCM       H1             -4.4078786557        4.2523332719       -3.0220114281  CLST      20              1.0000000000
        98        20  DCM       H2             -5.6106873797        2.8781639082       -2.9035077178  CLST      20              1.0000000000
        99        20  DCM       CL1            -4.6052994195        3.0303079973       -5.0692732096  CLST      20              1.0000000000
       100        20  DCM       CL2            -3.3589235746        2.1538238905       -2.5784600615  CLST      20              1.0000000000
       101        21  DCM       C              -2.6062352021       10.9772629362       -6.1487736704  CLST      21              1.0000000000
       102        21  DCM       H1             -3.0643713271       10.2344445040       -6.8363217567  CLST      21              1.0000000000
       103        21  DCM       H2             -2.6384103545       11.9974432936       -6.5852131103  CLST      21              1.0000000000
       104        21  DCM       CL1            -0.9022403880       10.5261717711       -5.8550062422  CLST      21              1.0000000000
       105        21  DCM       CL2            -3.5058284576       10.9762675473       -4.6041047461  CLST      21              1.0000000000
       106        22  DCM       C              -0.1732162011        3.0391153414        9.3408476991  CLST      22              1.0000000000
       107        22  DCM       H1             -1.0270222724        3.7476381186        9.3228022216  CLST      22              1.0000000000
       108        22  DCM       H2              0.4087069336        3.1458931700       10.2810849149  CLST      22              1.0000000000
       109        22  DCM       CL1            -0.7993530658        1.3685258069        9.2274601233  CLST      22              1.0000000000
       110        22  DCM       CL2             0.9000628829        3.3791413315        7.9540647032  CLST      22              1.0000000000
       111        23  DCM       C               1.4314562121       -0.4557339587       11.5825098474  CLST      23              1.0000000000
       112        23  DCM       H1              1.3180030441       -0.7202982709       10.5111215993  CLST      23              1.0000000000
       113        23  DCM       H2              2.1231136281       -1.1577545165       12.0964407573  CLST      23              1.0000000000
       114        23  DCM       CL1             2.0889091256        1.2020079283       11.7088000351  CLST      23              1.0000000000
       115        23  DCM       CL2            -0.1707815212       -0.5329242624       12.3714673464  CLST      23              1.0000000000
       116        24  DCM       C               9.3489152778       -8.0813403237      -12.8599970898  CLST      24              1.0000000000
       117        24  DCM       H1             10.0363698501       -7.3061442012      -12.4601240889  CLST      24              1.0000000000
       118        24  DCM       H2              9.8231827977       -9.0853937877      -12.8415080714  CLST      24              1.0000000000
       119        24  DCM       CL1             7.8694185304       -8.1188735176      -11.8566010496  CLST      24              1.0000000000
       120        24  DCM       CL2             8.9271949759       -7.6692258127      -14.5480146294  CLST      24              1.0000000000
       121        25  DCM       C              -4.1837113187       -9.6124323228        4.9373703476  CLST      25              1.0000000000
       122        25  DCM       H1             -4.7596613240       -9.0539932938        4.1708861792  CLST      25              1.0000000000
       123        25  DCM       H2             -4.8210400866       -9.8577812957        5.8130237624  CLST      25              1.0000000000
       124        25  DCM       CL1            -3.5791172430      -11.1299853229        4.2136662413  CLST      25              1.0000000000
       125        25  DCM       CL2            -2.8055191179       -8.6096952255        5.4783933520  CLST      25              1.0000000000
       126        26  DCM       C               3.3174308913       14.4479537306       -2.1513925863  CLST      26              1.0000000000
       127        26  DCM       H1              3.6963845081       13.9372740232       -3.0605066209  CLST      26              1.0000000000
       128        26  DCM       H2              3.8592525976       15.4020603542       -1.9717366663  CLST      26              1.0000000000
       129        26  DCM       CL1             1.5781670083       14.8006709513       -2.3653235088  CLST      26              1.0000000000
       130        26  DCM       CL2             3.5505012679       13.3747995277       -0.7411987402  CLST      26              1.0000000000
       131        27  DCM       C               5.2988423950        4.1135841842       -4.7277135871  CLST      27              1.0000000000
       132        27  DCM       H1              4.9029878021        3.7046095517       -3.7750358600  CLST      27              1.0000000000
       133        27  DCM       H2              4.5910100395        4.8439685043       -5.1733029760  CLST      27              1.0000000000
       134        27  DCM       CL1             6.8530950490        4.9317485770       -4.4021750053  CLST      27              1.0000000000
       135        27  DCM       CL2             5.5521557314        2.7670646169       -5.8754149836  CLST      27              1.0000000000
       136        28  DCM       C               6.9863732294        0.5816101420        0.9235834834  CLST      28              1.0000000000
       137        28  DCM       H1              7.1559294596       -0.0636914461        0.0367284406  CLST      28              1.0000000000
       138        28  DCM       H2              7.4497057340        1.5801859247        0.7861255375  CLST      28              1.0000000000
       139        28  DCM       CL1             5.2293342206        0.7856963803        1.1607032580  CLST      28              1.0000000000
       140        28  DCM       CL2             7.7039464808       -0.2068939564        2.3566506335  CLST      28              1.0000000000
       141        29  DCM       C              12.0072624249       -1.0046665357        3.1378712096  CLST      29              1.0000000000
       142        29  DCM       H1             10.9706933309       -0.7112702052        3.4109041436  CLST      29              1.0000000000
       143        29  DCM       H2             12.0961755721       -1.1804387235        2.0457372303  CLST      29              1.0000000000
       144        29  DCM       CL1            13.1314247948        0.3030446817        3.6087143892  CLST      29              1.0000000000
       145        29  DCM       CL2            12.4390628782       -2.5072202793        4.0032742924  CLST      29              1.0000000000
       146        30  DCM       C               0.2308843476       -9.7851541404        3.0941395664  CLST      30              1.0000000000
       147        30  DCM       H1              0.6382141916       -8.8373194505        3.5005837930  CLST      30              1.0000000000
       148        30  DCM       H2             -0.7636193142       -9.6223303341        2.6267753567  CLST      30              1.0000000000
       149        30  DCM       CL1             0.0618659304      -10.9647348797        4.4247781173  CLST      30              1.0000000000
       150        30  DCM       CL2             1.3580110618      -10.4245523276        1.8640734600  CLST      30              1.0000000000
       151        31  DCM       C               2.7189515956        4.0746628606       -7.7058365033  CLST      31              1.0000000000
       152        31  DCM       H1              3.3025199254        3.1347929344       -7.7990352667  CLST      31              1.0000000000
       153        31  DCM       H2              2.3400146050        4.2068797812       -6.6701711998  CLST      31              1.0000000000
       154        31  DCM       CL1             3.7740810225        5.4543529812       -8.1230856615  CLST      31              1.0000000000
       155        31  DCM       CL2             1.3358949248        4.0116979786       -8.8352576131  CLST      31              1.0000000000
       156        32  DCM       C              -5.7655197833       -6.0152482873       -6.1681498523  CLST      32              1.0000000000
       157        32  DCM       H1             -6.7278483160       -5.6321896835       -6.5688106482  CLST      32              1.0000000000
       158        32  DCM       H2             -5.1828828469       -6.5389153203       -6.9558577179  CLST      32              1.0000000000
       159        32  DCM       CL1            -6.1060518366       -7.1631769745       -4.8420095790  CLST      32              1.0000000000
       160        32  DCM       CL2            -4.8045363416       -4.6413540252       -5.5481841130  CLST      32              1.0000000000
       161        33  DCM       C              -7.0916459008       -6.5090373882       -1.3138707194  CLST      33              1.0000000000
       162        33  DCM       H1             -6.3679601021       -6.2750383142       -2.1210191182  CLST      33              1.0000000000
       163        33  DCM       H2             -7.9232619534       -5.7753523192       -1.3012872927  CLST      33              1.0000000000
       164        33  DCM       CL1            -7.7632312215       -8.1394713408       -1.5930150376  CLST      33              1.0000000000
       165        33  DCM       CL2            -6.2447860554       -6.4521120066        0.2576839941  CLST      33              1.0000000000
       166        34  DCM       C               6.1878479041       -0.7232381665        5.8880645716  CLST      34              1.0000000000
       167        34  DCM       H1              6.3626354699       -0.2926089818        6.8958862907  CLST      34              1.0000000000
       168        34  DCM       H2              7.1483219647       -0.9369616843        5.3720620838  CLST      34              1.0000000000
       169        34  DCM       CL1             5.2629038372       -2.2435235403        6.0563016179  CLST      34              1.0000000000
       170        34  DCM       CL2             5.2565379218        0.4463545247        4.9114614104  CLST      34              1.0000000000
       171        35  DCM       C              -3.0671576686       -9.1932582078       -5.5449837557  CLST      35              1.0000000000
       172        35  DCM       H1             -3.6727865389       -9.1846543504       -4.6150446987  CLST      35              1.0000000000
       173        35  DCM       H2             -2.2224493778       -9.9096425408       -5.4629682839  CLST      35              1.0000000000
       174        35  DCM       CL1            -4.1143381540       -9.6794370553       -6.9081173556  CLST      35              1.0000000000
       175        35  DCM       CL2            -2.4193637037       -7.5529394810       -5.8367181280  CLST      35              1.0000000000
       176        36  DCM       C              -0.7536529803        0.9991460072        5.5429991101  CLST      36              1.0000000000
       177        36  DCM       H1              0.3413492732        0.8937142438        5.3820529828  CLST      36              1.0000000000
       178        36  DCM       H2             -0.9703440271        1.7818740189        6.2949719960  CLST      36              1.0000000000
       179        36  DCM       CL1            -1.5357838255        1.4483497630        4.0031211735  CLST      36              1.0000000000
       180        36  DCM       CL2            -1.4042700683       -0.5612351370        6.1156671261  CLST      36              1.0000000000
       181        37  DCM       C               2.8453689048        7.7329778341        3.4157996728  CLST      37              1.0000000000
       182        37  DCM       H1              1.9298469257        8.3464964130        3.5616573746  CLST      37              1.0000000000
       183        37  DCM       H2              3.7611912717        8.3455205074        3.5513893864  CLST      37              1.0000000000
       184        37  DCM       CL1             2.8557562453        6.4046214083        4.6099644145  CLST      37              1.0000000000
       185        37  DCM       CL2             2.8393402733        7.0562862514        1.7622079818  CLST      37              1.0000000000
       186        38  DCM       C              -9.4864814153        1.4642035270       -4.7469299561  CLST      38              1.0000000000
       187        38  DCM       H1             -9.6160557193        1.3934058626       -5.8482398690  CLST      38              1.0000000000
       188        38  DCM       H2            -10.3879554214        1.8871758964       -4.2617918464  CLST      38              1.0000000000
       189        38  DCM       CL1            -9.1961637257       -0.1679514954       -4.0847225770  CLST      38              1.0000000000
       190        38  DCM       CL2            -8.0941741541        2.5229138764       -4.3897453984  CLST      38              1.0000000000
       191        39  DCM       C              -4.6679573067       -0.1003525504        4.1651562508  CLST      39              1.0000000000
       192        39  DCM       H1             -3.9156394362       -0.7482077092        4.6614571870  CLST      39              1.0000000000
       193        39  DCM       H2             -4.2451585265        0.3830599851        3.2599296110  CLST      39              1.0000000000
       194        39  DCM       CL1            -5.1871991779        1.1692984707        5.3092418008  CLST      39              1.0000000000
       195        39  DCM       CL2            -6.0609185264       -1.1062366444        3.6841518187  CLST      39              1.0000000000
       196        40  DCM       C              -0.0342186765       13.6454029178        0.6704624845  CLST      40              1.0000000000
       197        40  DCM       H1              0.5703435755       12.7403255106        0.4511770161  CLST      40              1.0000000000
       198        40  DCM       H2             -0.4314565801       14.0958039340       -0.2630628063  CLST      40              1.0000000000
       199        40  DCM       CL1            -1.4053485188       13.1889686442        1.7209521101  CLST      40              1.0000000000
       200        40  DCM       CL2             0.9978077705       14.8447875735        1.5017069388  CLST      40              1.0000000000
       201        41  DCM       C               4.9862041610       -3.0777422665        2.5353164705  CLST      41              1.0000000000
       202        41  DCM       H1              5.4800682708       -2.2443417104        3.0772840245  CLST      41              1.0000000000
       203        41  DCM       H2              3.8835755331       -3.0315400876        2.6458900006  CLST      41              1.0000000000
       204        41  DCM       CL1             5.5547399284       -4.6359933099        3.1996337202  CLST      41              1.0000000000
       205        41  DCM       CL2             5.3958548958       -2.9646421005        0.8006101313  CLST      41              1.0000000000
       206        42  DCM       C              -5.9356956228       -1.1995441294       -5.8091595775  CLST      42              1.0000000000
       207        42  DCM       H1             -6.7719843101       -1.9071559314       -5.6312326003  CLST      42              1.0000000000
       208        42  DCM       H2             -5.0823537710       -1.7044951963       -6.3095687419  CLST      42              1.0000000000
       209        42  DCM       CL1            -6.5118508618        0.1380504793       -6.8444936721  CLST      42              1.0000000000
       210        42  DCM       CL2            -5.3793562485       -0.5516474867       -4.2422352301  CLST      42              1.0000000000
       211        43  DCM       C              13.7893984567        4.2385471274        2.1546958481  CLST      43              1.0000000000
       212        43  DCM       H1             14.8182543028        4.0291721528        1.7953623895  CLST      43              1.0000000000
       213        43  DCM       H2             13.0585943697        3.5430168573        1.6946422585  CLST      43              1.0000000000
       214        43  DCM       CL1            13.7329455679        4.0409780255        3.9298487316  CLST      43              1.0000000000
       215        43  DCM       CL2            13.3558947466        5.9143353869        1.7120756709  CLST      43              1.0000000000
       216        44  DCM       C              -6.0325045154        6.8633148569        3.0974945832  CLST      44              1.0000000000
       217        44  DCM       H1             -6.2570301172        7.6801427408        3.8164741047  CLST      44              1.0000000000
       218        44  DCM       H2             -4.9620952198        6.5763799929        3.1427166368  CLST      44              1.0000000000
       219        44  DCM       CL1            -7.0301728999        5.4375839202        3.5086148125  CLST      44              1.0000000000
       220        44  DCM       CL2            -6.4103833465        7.4209654835        1.4410332559  CLST      44              1.0000000000
       221        45  DCM       C             -10.1182088881        4.8964627939        1.5323123576  CLST      45              1.0000000000
       222        45  DCM       H1             -9.0845628407        4.4976064041        1.4734154676  CLST      45              1.0000000000
       223        45  DCM       H2            -10.7131308406        4.5900891510        0.6466905069  CLST      45              1.0000000000
       224        45  DCM       CL1           -10.9066152097        4.2650358555        3.0062092485  CLST      45              1.0000000000
       225        45  DCM       CL2           -10.0573671092        6.6810170780        1.5953792698  CLST      45              1.0000000000
       226        46  DCM       C               1.7291296841        6.0927853822       -1.8212211120  CLST      46              1.0000000000
       227        46  DCM       H1              0.6720447719        6.4212288450       -1.8998954502  CLST      46              1.0000000000
       228        46  DCM       H2              1.8993322457        5.5246614562       -0.8818915757  CLST      46              1.0000000000
       229        46  DCM       CL1             2.1092151603        5.0425840632       -3.2154663846  CLST      46              1.0000000000
       230        46  DCM       CL2             2.7923159799        7.5290839382       -1.8314944096  CLST      46              1.0000000000
       231        47  DCM       C              -4.4137590643        7.2902737677      -10.1259401874  CLST      47              1.0000000000
       232        47  DCM       H1             -3.5242549123        7.5814063898      -10.7224841211  CLST      47              1.0000000000
       233        47  DCM       H2             -5.2985890009        7.1314887266      -10.7787486975  CLST      47              1.0000000000
       234        47  DCM       CL1            -4.0574716276        5.7716273490       -9.2513543078  CLST      47              1.0000000000
       235        47  DCM       CL2            -4.7802636444        8.5948751240       -8.9599061354  CLST      47              1.0000000000
       236        48  DCM       C             -14.5179942966       -0.1612838862       -3.3834232324  CLST      48              1.0000000000
       237        48  DCM       H1            -15.3489036357        0.1127885967       -4.0675418540  CLST      48              1.0000000000
       238        48  DCM       H2            -14.4473499979       -1.2629236652       -3.2596305717  CLST      48              1.0000000000
       239        48  DCM       CL1           -14.8091790789        0.5878405104       -1.7878570606  CLST      48              1.0000000000
       240        48  DCM       CL2           -12.9822994903        0.4473457371       -4.0634251620  CLST      48              1.0000000000
       241        49  DCM       C              -2.2939436090      -13.4975314502        1.4252348127  CLST      49              1.0000000000
       242        49  DCM       H1             -3.1791396878      -13.5223867336        2.0957568464  CLST      49              1.0000000000
       243        49  DCM       H2             -1.3981608016      -13.9189297018        1.9292749978  CLST      49              1.0000000000
       244        49  DCM       CL1            -2.6439771005      -14.4520836758       -0.0447242414  CLST      49              1.0000000000
       245        49  DCM       CL2            -1.9581625622      -11.8048354693        0.9702569573  CLST      49              1.0000000000
       246        50  DCM       C               4.4039397115       -1.7453038923       -4.2647060473  CLST      50              1.0000000000
       247        50  DCM       H1              4.2205145729       -2.8152613603       -4.4987564519  CLST      50              1.0000000000
       248        50  DCM       H2              3.6341571660       -1.0988830762       -4.7343404167  CLST      50              1.0000000000
       249        50  DCM       CL1             4.3505913175       -1.5176579923       -2.4914384146  CLST      50              1.0000000000
       250        50  DCM       CL2             6.0068292581       -1.2719632329       -4.8973432946  CLST      50              1.0000000000
       251        51  DCM       C              -5.9476028353       -0.2056553272        0.0954192370  CLST      51              1.0000000000
       252        51  DCM       H1             -5.9985538251       -1.3007030093       -0.0711254739  CLST      51              1.0000000000
       253        51  DCM       H2             -6.4935653568        0.0804360521        1.0163730385  CLST      51              1.0000000000
       254        51  DCM       CL1            -4.2412415270        0.2833990420        0.2596823005  CLST      51              1.0000000000
       255        51  DCM       CL2            -6.6851818774        0.6314505048       -1.2963884207  CLST      51              1.0000000000
       256        52  DCM       C              -7.4982415664       -2.9773076411       -2.3672222075  CLST      52              1.0000000000
       257        52  DCM       H1             -7.5587505905       -1.8938804002       -2.5956203201  CLST      52              1.0000000000
       258        52  DCM       H2             -8.1075610439       -3.2280929168       -1.4748325544  CLST      52              1.0000000000
       259        52  DCM       CL1            -8.1096628037       -3.9074558538       -3.7647136743  CLST      52              1.0000000000
       260        52  DCM       CL2            -5.7911975390       -3.4019846269       -2.0572480974  CLST      52              1.0000000000
       261        53  DCM       C              15.6511949002       -1.7555977040        1.7424154939  CLST      53              1.0000000000
       262        53  DCM       H1             15.8953157027       -0.7601436578        1.3175298813  CLST      53              1.0000000000
       263        53  DCM       H2             14.5597680983       -1.9491572530        1.6952276670  CLST      53              1.0000000000
       264        53  DCM       CL1            16.5096931366       -3.0136973326        0.8090841463  CLST      53              1.0000000000
       265        53  DCM       CL2            16.1775305550       -1.8071953876        3.4491417111  CLST      53              1.0000000000
       266        54  DCM       C             -13.4138710669        5.0143123481       -3.3799968911  CLST      54              1.0000000000
       267        54  DCM       H1            -12.9628770355        5.4066586634       -2.4441433297  CLST      54              1.0000000000
       268        54  DCM       H2            -13.7730520708        5.8419560584       -4.0274008394  CLST      54              1.0000000000
       269        54  DCM       CL1           -12.1815562035        4.0756307179       -4.2692584728  CLST      54              1.0000000000
       270        54  DCM       CL2           -14.7942477131        3.9569485742       -2.9669390731  CLST      54              1.0000000000
       271        55  DCM       C               1.2236934178       -1.3287438374        2.5796352371  CLST      55              1.0000000000
       272        55  DCM       H1              0.7880156888       -2.3460523470        2.5828418498  CLST      55              1.0000000000
       273        55  DCM       H2              0.4271240054       -0.5559579830        2.5898754536  CLST      55              1.0000000000
       274        55  DCM       CL1             2.2288700352       -1.1256974601        4.0383617364  CLST      55              1.0000000000
       275        55  DCM       CL2             2.2222058304       -1.1199013223        1.1117532515  CLST      55              1.0000000000
       276        56  DCM       C               1.6947963276       10.8026850405        7.1773188965  CLST      56              1.0000000000
       277        56  DCM       H1              0.7751238533       10.7981458256        6.5549796760  CLST      56              1.0000000000
       278        56  DCM       H2              2.0807929932       11.8359446738        7.3097330736  CLST      56              1.0000000000
       279        56  DCM       CL1             1.3120814478       10.1134913739        8.7816206863  CLST      56              1.0000000000
       280        56  DCM       CL2             2.9476581548        9.8107347704        6.3739218084  CLST      56              1.0000000000
       281        57  DCM       C               8.0882149826        1.4006744215       -3.3359223562  CLST      57              1.0000000000
       282        57  DCM       H1              7.9545461740        1.8415092559       -4.3458479311  CLST      57              1.0000000000
       283        57  DCM       H2              8.4400390732        0.3495986562       -3.4040465115  CLST      57              1.0000000000
       284        57  DCM       CL1             6.5231657359        1.4335225208       -2.4759721698  CLST      57              1.0000000000
       285        57  DCM       CL2             9.2920883282        2.3654805942       -2.4343190619  CLST      57              1.0000000000
       286        58  DCM       C              -2.3898477432       -1.6776962609       -2.0694183731  CLST      58              1.0000000000
       287        58  DCM       H1             -2.4193236692       -0.6388902303       -2.4602721741  CLST      58              1.0000000000
       288        58  DCM       H2             -3.2572525124       -1.8804136562       -1.4078455407  CLST      58              1.0000000000
       289        58  DCM       CL1            -0.8826567625       -1.9051461761       -1.1349213662  CLST      58              1.0000000000
       290        58  DCM       CL2            -2.4382417844       -2.8169848689       -3.4456265333  CLST      58              1.0000000000
       291        59  DCM       C               3.1339804150       -8.3634032163       -2.4212886763  CLST      59              1.0000000000
       292        59  DCM       H1              2.2265919629       -7.7231496680       -2.4529585990  CLST      59              1.0000000000
       293        59  DCM       H2              3.0218923306       -9.2481756580       -3.0801266964  CLST      59              1.0000000000
       294        59  DCM       CL1             4.5409239485       -7.4044534349       -2.9646755604  CLST      59              1.0000000000
       295        59  DCM       CL2             3.3900459984       -8.9218025660       -0.7440978593  CLST      59              1.0000000000
       296        60  DCM       C              -2.9931263530        8.2344511492       -2.3442401578  CLST      60              1.0000000000
       297        60  DCM       H1             -3.0404354773        9.1126605087       -1.6682743178  CLST      60              1.0000000000
       298        60  DCM       H2             -3.7477477951        8.3178615493       -3.1546129565  CLST      60              1.0000000000
       299        60  DCM       CL1            -1.3649426974        8.1594988331       -3.0750602318  CLST      60              1.0000000000
       300        60  DCM       CL2            -3.3085658253        6.7459341813       -1.4052651854  CLST      60              1.0000000000
       301        61  DCM       C              17.0317105630        2.1547041423       -1.5908803932  CLST      61              1.0000000000
       302        61  DCM       H1             17.9571379474        2.7508454408       -1.7380170007  CLST      61              1.0000000000
       303        61  DCM       H2             16.2953772842        2.7063527678       -0.9691772491  CLST      61              1.0000000000
       304        61  DCM       CL1            16.3061387371        1.7986171191       -3.1853172938  CLST      61              1.0000000000
       305        61  DCM       CL2            17.4512824722        0.6265102797       -0.7694989277  CLST      61              1.0000000000
       306        62  DCM       C              -1.4402877335        9.4233820884        1.0002094599  CLST      62              1.0000000000
       307        62  DCM       H1             -2.4159721926        8.8999140689        0.9101836171  CLST      62              1.0000000000
       308        62  DCM       H2             -1.4632593372       10.4059507195        0.4851220190  CLST      62              1.0000000000
       309        62  DCM       CL1            -1.0791368113        9.6790013039        2.7305698371  CLST      62              1.0000000000
       310        62  DCM       CL2            -0.1671649797        8.4096691991        0.2650169470  CLST      62              1.0000000000
       311        63  DCM       C               0.3891004874       -2.5721759890       -5.9133510160  CLST      63              1.0000000000
       312        63  DCM       H1             -0.0492373099       -1.8334834164       -6.6162167735  CLST      63              1.0000000000
       313        63  DCM       H2             -0.3407487153       -3.3743518501       -5.6747856446  CLST      63              1.0000000000
       314        63  DCM       CL1             1.8412003846       -3.3006745109       -6.6575770217  CLST      63              1.0000000000
       315        63  DCM       CL2             0.8467223783       -1.7353649976       -4.4043095552  CLST      63              1.0000000000
       316        64  DCM       C               1.8079043900        8.1984201951       -5.4713026235  CLST      64              1.0000000000
       317        64  DCM       H1              1.4336766257        8.4975785525       -4.4702902375  CLST      64              1.0000000000
       318        64  DCM       H2              1.7141637194        9.0322108978       -6.1989432846  CLST      64              1.0000000000
       319        64  DCM       CL1             3.5283040361        7.7327355836       -5.3373194288  CLST      64              1.0000000000
       320        64  DCM       CL2             0.8453236613        6.8113760490       -6.0499980605  CLST      64              1.0000000000
       321        65  DCM       C               7.3160446244       -3.8149024577       -2.3182675920  CLST      65              1.0000000000
       322        65  DCM       H1              6.7397498591       -4.2595348885       -1.4803893876  CLST      65              1.0000000000
       323        65  DCM       H2              6.7149843251       -3.8006062038       -3.2508583618  CLST      65              1.0000000000
       324        65  DCM       CL1             7.7627049574       -2.1414119039       -1.8871213679  CLST      65              1.0000000000
       325        65  DCM       CL2             8.7955388344       -4.7789609520       -2.5862642051  CLST      65              1.0000000000
       326        66  DCM       C               0.6997027649       -5.0654202708        5.3028124461  CLST      66              1.0000000000
       327        66  DCM       H1              0.5443361426       -5.3121382260        6.3750303327  CLST      66              1.0000000000
       328        66  DCM       H2              0.5367162599       -5.9550570171        4.6600626874  CLST      66              1.0000000000
       329        66  DCM       CL1            -0.4522898523       -3.7865070747        4.8276226708  CLST      66              1.0000000000
       330        66  DCM       CL2             2.3755432458       -4.4894290348        5.0760604691  CLST      66              1.0000000000
       331        67  DCM       C              -3.1072857822       -6.2323254847       -2.4856933868  CLST      67              1.0000000000
       332        67  DCM       H1             -3.9196421570       -5.6124991076       -2.9187364805  CLST      67              1.0000000000
       333        67  DCM       H2             -2.2802774466       -6.3733592463       -3.2116220234  CLST      67              1.0000000000
       334        67  DCM       CL1            -2.4639308166       -5.4177370825       -1.0357409479  CLST      67              1.0000000000
       335        67  DCM       CL2            -3.7700018473       -7.8266709903       -2.0352206753  CLST      67              1.0000000000
       336        68  DCM       C              -1.3502607304        2.7751540100        0.5930610604  CLST      68              1.0000000000
       337        68  DCM       H1             -1.4371343226        3.1880423689        1.6201648706  CLST      68              1.0000000000
       338        68  DCM       H2             -2.3289585238        2.4196108368        0.2179354766  CLST      68              1.0000000000
       339        68  DCM       CL1            -0.7379522351        4.0477251368       -0.4988049343  CLST      68              1.0000000000
       340        68  DCM       CL2            -0.2280601283        1.3915346768        0.6131508414  CLST      68              1.0000000000
       341        69  DCM       C              10.2008194376       -6.8287922574       -0.0089329282  CLST      69              1.0000000000
       342        69  DCM       H1              9.1152761637       -7.0414183692        0.0815574646  CLST      69              1.0000000000
       343        69  DCM       H2             10.3779322184       -5.7618777917       -0.2586710502  CLST      69              1.0000000000
       344        69  DCM       CL1            11.0023643276       -7.2034317476        1.5438469710  CLST      69              1.0000000000
       345        69  DCM       CL2            10.8855957649       -7.8479725053       -1.3070880292  CLST      69              1.0000000000
       346        70  DCM       C              -3.2642207994       -6.9719040030        2.2330084552  CLST      70              1.0000000000
       347        70  DCM       H1             -3.8959201321       -6.9709992958        3.1460949810  CLST      70              1.0000000000
       348        70  DCM       H2             -3.6037772846       -6.1993352805        1.5148085204  CLST      70              1.0000000000
       349        70  DCM       CL1            -1.5721708583       -6.6344740717        2.6935165972  CLST      70              1.0000000000
       350        70  DCM       CL2            -3.3705648734       -8.5730663621        1.4506834514  CLST      70              1.0000000000
       351        71  DCM       C               0.3082310669        6.9137841959        7.0987105815  CLST      71              1.0000000000
       352        71  DCM       H1              0.4900362361        5.9386663755        6.5992045260  CLST      71              1.0000000000
       353        71  DCM       H2              1.2477508681        7.3217258609        7.5245934208  CLST      71              1.0000000000
       354        71  DCM       CL1            -0.3386040269        8.0669281063        5.8966355970  CLST      71              1.0000000000
       355        71  DCM       CL2            -0.8784054516        6.6788851299        8.4142293041  CLST      71              1.0000000000
       356        72  DCM       C               2.9105111954       11.7165102394        2.7263980833  CLST      72              1.0000000000
       357        72  DCM       H1              3.7260813407       11.2423620066        3.3144985363  CLST      72              1.0000000000
       358        72  DCM       H2              3.2314418892       12.6944798967        2.3117577967  CLST      72              1.0000000000
       359        72  DCM       CL1             2.4588586221       10.6326550190        1.3801950853  CLST      72              1.0000000000
       360        72  DCM       CL2             1.4999490556       11.9725513873        3.7919801266  CLST      72              1.0000000000
       361        73  DCM       C               0.6764956507      -13.1716881054       -1.5595884229  CLST      73              1.0000000000
       362        73  DCM       H1              0.6193512899      -14.0755667360       -2.2016933819  CLST      73              1.0000000000
       363        73  DCM       H2             -0.3074136494      -12.6610076603       -1.5014978704  CLST      73              1.0000000000
       364        73  DCM       CL1             1.1743427071      -13.6574978780        0.0866586540  CLST      73              1.0000000000
       365        73  DCM       CL2             1.8805751105      -12.0436534783       -2.2472639480  CLST      73              1.0000000000
       366        74  DCM       C              11.1661000463       -1.4918350494       -1.1711716434  CLST      74              1.0000000000
       367        74  DCM       H1             12.2108692669       -1.5762476915       -0.8076491214  CLST      74              1.0000000000
       368        74  DCM       H2             10.6509707362       -2.4752351959       -1.1347558452  CLST      74              1.0000000000
       369        74  DCM       CL1            11.1827998066       -0.9072462756       -2.8595320429  CLST      74              1.0000000000
       370        74  DCM       CL2            10.2862682867       -0.3338548396       -0.1356004061  CLST      74              1.0000000000
       371        75  DCM       C               2.2690417550        2.1961543943        3.1701538932  CLST      75              1.0000000000
       372        75  DCM       H1              3.0737033091        1.4835715363        2.8953844336  CLST      75              1.0000000000
       373        75  DCM       H2              1.2736964117        1.7100347675        3.1220640269  CLST      75              1.0000000000
       374        75  DCM       CL1             2.5491046555        2.7742971983        4.8362705926  CLST      75              1.0000000000
       375        75  DCM       CL2             2.2919746175        3.5704376466        2.0325042230  CLST      75              1.0000000000
       376        76  DCM       C              -6.5746705490      -10.2898383000        0.8481631363  CLST      76              1.0000000000
       377        76  DCM       H1             -5.9086565458       -9.6610769920        0.2198531833  CLST      76              1.0000000000
       378        76  DCM       H2             -7.4876717741      -10.5840041453        0.2885426167  CLST      76              1.0000000000
       379        76  DCM       CL1            -5.6924232284      -11.7635830444        1.3404543112  CLST      76              1.0000000000
       380        76  DCM       CL2            -7.0556668711       -9.3572864694        2.2947707231  CLST      76              1.0000000000
       381        77  DCM       C               1.0227520783       -9.0710167905       -6.5027564594  CLST      77              1.0000000000
       382        77  DCM       H1              1.7970300850       -8.4857057905       -7.0460894530  CLST      77              1.0000000000
       383        77  DCM       H2              0.4408743174       -8.4229106808       -5.8183567931  CLST      77              1.0000000000
       384        77  DCM       CL1            -0.0887673097       -9.8091241311       -7.6923346113  CLST      77              1.0000000000
       385        77  DCM       CL2             1.8249082994      -10.3510844285       -5.5482260933  CLST      77              1.0000000000
       386        78  DCM       C              -9.0854980550       -2.2004751101        1.8127636345  CLST      78              1.0000000000
       387        78  DCM       H1             -8.8060312107       -1.6443157422        2.7313986965  CLST      78              1.0000000000
       388        78  DCM       H2            -10.0245837157       -2.7724183583        1.9630301766  CLST      78              1.0000000000
       389        78  DCM       CL1            -9.3149627664       -1.0412762834        0.4766080049  CLST      78              1.0000000000
       390        78  DCM       CL2            -7.7753362760       -3.3378176992        1.3993506334  CLST      78              1.0000000000
       391        79  DCM       C             -12.6359452146        2.3890323042        5.9048629843  CLST      79              1.0000000000
       392        79  DCM       H1            -12.5040124477        2.4359416860        4.8040073261  CLST      79              1.0000000000
       393        79  DCM       H2            -13.5054077694        3.0000829236        6.2288773482  CLST      79              1.0000000000
       394        79  DCM       CL1           -11.1577870702        3.0169583084        6.6898767916  CLST      79              1.0000000000
       395        79  DCM       CL2           -12.9029150707        0.6877445055        6.3874736751  CLST      79              1.0000000000
       396        80  DCM       C              -2.9170796128        2.2477845774       12.1292311621  CLST      80              1.0000000000
       397        80  DCM       H1             -3.6440239611        2.1889922575       12.9690569716  CLST      80              1.0000000000
       398        80  DCM       H2             -2.6593768966        1.2371016233       11.7528143938  CLST      80              1.0000000000
       399        80  DCM       CL1            -1.4283778358        3.0510717429       12.7085144172  CLST      80              1.0000000000
       400        80  DCM       CL2            -3.6415729527        3.1979357816       10.7984623268  CLST      80              1.0000000000
       401        81  DCM       C               3.7985054118       -8.0808340073        5.3659032396  CLST      81              1.0000000000
       402        81  DCM       H1              4.5293612263       -8.1881119248        6.1944952116  CLST      81              1.0000000000
       403        81  DCM       H2              3.9180510247       -7.1030484224        4.8525006095  CLST      81              1.0000000000
       404        81  DCM       CL1             4.0617893376       -9.3955592397        4.1842348340  CLST      81              1.0000000000
       405        81  DCM       CL2             2.1443022674       -8.1966243925        6.0341890384  CLST      81              1.0000000000
       406        82  DCM       C             -13.1042907567       -6.9033294139        2.7046994544  CLST      82              1.0000000000
       407        82  DCM       H1            -12.0496547761       -7.0355723129        3.0261829842  CLST      82              1.0000000000
       408        82  DCM       H2            -13.8019242690       -7.4146322834        3.4016381669  CLST      82              1.0000000000
       409        82  DCM       CL1           -13.4890531806       -5.1582860961        2.6736183628  CLST      82              1.0000000000
       410        82  DCM       CL2           -13.3075305231       -7.5959591138        1.0690468648  CLST      82              1.0000000000
       411        83  DCM       C              -0.4624112011        7.1115553515       -9.2626844422  CLST      83              1.0000000000
       412        83  DCM       H1              0.6228952634        7.0669323219       -9.0334406924  CLST      83              1.0000000000
       413        83  DCM       H2             -1.0462943404        6.4907167675       -8.5501749994  CLST      83              1.0000000000
       414        83  DCM       CL1            -1.0139178339        8.8073083837       -9.1407794335  CLST      83              1.0000000000
       415        83  DCM       CL2            -0.7283979300        6.4998712693      -10.9207709972  CLST      83              1.0000000000
       416        84  DCM       C              -4.3506118276        6.6325259209       -5.5775279916  CLST      84              1.0000000000
       417        84  DCM       H1             -4.6978004957        5.8811774796       -6.3181838441  CLST      84              1.0000000000
       418        84  DCM       H2             -4.1698869550        6.1630680167       -4.5884645591  CLST      84              1.0000000000
       419        84  DCM       CL1            -2.8285649382        7.3604941429       -6.1626900475  CLST      84              1.0000000000
       420        84  DCM       CL2            -5.5974573264        7.9007960372       -5.4044370746  CLST      84              1.0000000000
       421        85  DCM       C               1.0907712025       10.8422307814       -2.2545686155  CLST      85              1.0000000000
       422        85  DCM       H1              1.6626171645       11.1569430934       -1.3576756449  CLST      85              1.0000000000
       423        85  DCM       H2              0.9699323258        9.7403028013       -2.2820960847  CLST      85              1.0000000000
       424        85  DCM       CL1            -0.5269334481       11.6010013100       -2.2124784847  CLST      85              1.0000000000
       425        85  DCM       CL2             1.9747295703       11.3646114303       -3.7168434828  CLST      85              1.0000000000
       426        86  DCM       C              13.0523676044        1.8309745960       -1.3385926550  CLST      86              1.0000000000
       427        86  DCM       H1             13.4890306133        1.3296570494       -2.2283645274  CLST      86              1.0000000000
       428        86  DCM       H2             11.9487658138        1.7202871598       -1.3243060089  CLST      86              1.0000000000
       429        86  DCM       CL1            13.7311665690        1.0912944456        0.1400037827  CLST      86              1.0000000000
       430        86  DCM       CL2            13.4539937706        3.5712624846       -1.3876117389  CLST      86              1.0000000000
       431        87  DCM       C              16.6580812054        1.7949072673        4.2881249713  CLST      87              1.0000000000
       432        87  DCM       H1             15.8312460105        1.1442326769        4.6435026791  CLST      87              1.0000000000
       433        87  DCM       H2             16.5596054887        2.8232176361        4.6959712795  CLST      87              1.0000000000
       434        87  DCM       CL1            16.6137231562        1.8703855128        2.5031642795  CLST      87              1.0000000000
       435        87  DCM       CL2            18.2149667543        1.1006507114        4.8255047140  CLST      87              1.0000000000
       436        88  DCM       C              16.3559500582       -2.1802218705       -2.8001077306  CLST      88              1.0000000000
       437        88  DCM       H1             17.1784467462       -2.0092122930       -2.0736543002  CLST      88              1.0000000000
       438        88  DCM       H2             16.5508425363       -1.6493554539       -3.7558845271  CLST      88              1.0000000000
       439        88  DCM       CL1            14.8251840736       -1.5764829918       -2.1021192363  CLST      88              1.0000000000
       440        88  DCM       CL2            16.2250003883       -3.9336654200       -3.1194373670  CLST      88              1.0000000000
       441        89  DCM       C              10.0933309934        3.4649509684        1.0183583336  CLST      89              1.0000000000
       442        89  DCM       H1             10.9555489639        3.5329011170        0.3232768746  CLST      89              1.0000000000
       443        89  DCM       H2              9.1776714251        3.1360774973        0.4858702145  CLST      89              1.0000000000
       444        89  DCM       CL1            10.4669397468        2.2847347389        2.3054247167  CLST      89              1.0000000000
       445        89  DCM       CL2             9.8007912526        5.0732413821        1.7388340712  CLST      89              1.0000000000
       446        90  DCM       C             -10.2724583900       -3.1742990805        5.6004956557  CLST      90              1.0000000000
       447        90  DCM       H1            -11.0639789487       -2.4553979347        5.3007439093  CLST      90              1.0000000000
       448        90  DCM       H2            -10.5032466896       -3.6320857980        6.5856479421  CLST      90              1.0000000000
       449        90  DCM       CL1           -10.1537101683       -4.4682704381        4.3716170922  CLST      90              1.0000000000
       450        90  DCM       CL2            -8.7160997793       -2.3042898613        5.7157075359  CLST      90              1.0000000000
       451        91  DCM       C              -2.6194809883       -3.2756617864        1.9167774590  CLST      91              1.0000000000
       452        91  DCM       H1             -2.6120423485       -3.8814335053        2.8457984347  CLST      91              1.0000000000
       453        91  DCM       H2             -1.8810747029       -3.6598788361        1.1840011949  CLST      91              1.0000000000
       454        91  DCM       CL1            -4.2513980756       -3.3325671996        1.1979080670  CLST      91              1.0000000000
       455        91  DCM       CL2            -2.2029048847       -1.5930913007        2.3251485697  CLST      91              1.0000000000
       456        92  DCM       C               5.2946625587        5.1210209444       -0.9096617865  CLST      92              1.0000000000
       457        92  DCM       H1              4.9930389864        5.8219130690       -0.1028537801  CLST      92              1.0000000000
       458        92  DCM       H2              5.1623696724        5.5837212004       -1.9102313141  CLST      92              1.0000000000
       459        92  DCM       CL1             7.0119693361        4.6856643452       -0.6921881538  CLST      92              1.0000000000
       460        92  DCM       CL2             4.2886301724        3.6498895040       -0.8108601157  CLST      92              1.0000000000
       461        93  DCM       C              -4.8027891477        4.1166327762        0.6339521522  CLST      93              1.0000000000
       462        93  DCM       H1             -4.6505221446        5.2019590745        0.8020608942  CLST      93              1.0000000000
       463        93  DCM       H2             -4.1119196158        3.7363960186       -0.1458888117  CLST      93              1.0000000000
       464        93  DCM       CL1            -6.4788676965        3.8463557922        0.0906128065  CLST      93              1.0000000000
       465        93  DCM       CL2            -4.5136310924        3.2440688927        2.1670831865  CLST      93              1.0000000000
       466        94  DCM       C             -13.7982265066       -0.4075772925        3.0754966638  CLST      94              1.0000000000
       467        94  DCM       H1            -13.2486012494        0.5557952162        3.1274845355  CLST      94              1.0000000000
       468        94  DCM       H2            -14.4024337463       -0.5737178103        3.9922617061  CLST      94              1.0000000000
       469        94  DCM       CL1           -14.8860838471       -0.3842725785        1.6592449904  CLST      94              1.0000000000
       470        94  DCM       CL2           -12.6183529011       -1.7366524311        2.9069755273  CLST      94              1.0000000000
       471        95  DCM       C              -0.5914092944       -9.3806403808       -1.1921285593  CLST      95              1.0000000000
       472        95  DCM       H1             -1.6532845760       -9.6119274771       -0.9637593935  CLST      95              1.0000000000
       473        95  DCM       H2              0.0726536211      -10.2174321143       -0.8962358064  CLST      95              1.0000000000
       474        95  DCM       CL1            -0.1138298260       -7.9226477633       -0.2856717790  CLST      95              1.0000000000
       475        95  DCM       CL2            -0.4259010575       -9.0833539082       -2.9448120068  CLST      95              1.0000000000
       476        96  DCM       C              -8.2821365872        6.4989540030       -1.6945581791  CLST      96              1.0000000000
       477        96  DCM       H1             -8.0912537027        6.0925101899       -0.6802597315  CLST      96              1.0000000000
       478        96  DCM       H2             -8.1916947098        7.6058121982       -1.7022528733  CLST      96              1.0000000000
       479        96  DCM       CL1            -7.0910500582        5.8067267454       -2.8342913362  CLST      96              1.0000000000
       480        96  DCM       CL2            -9.9373414136        6.0445661670       -2.1910856672  CLST      96              1.0000000000
       481        97  DCM       C               0.7474160551       -5.0009094474       -2.7537361592  CLST      97              1.0000000000
       482        97  DCM       H1              0.1139274297       -4.0917492775       -2.7869618703  CLST      97              1.0000000000
       483        97  DCM       H2              0.4556783678       -5.6549869010       -1.9069682729  CLST      97              1.0000000000
       484        97  DCM       CL1             0.5530388331       -5.9037666006       -4.2815809399  CLST      97              1.0000000000
       485        97  DCM       CL2             2.4529406251       -4.5125812990       -2.5519873988  CLST      97              1.0000000000
       486        98  DCM       C              -0.5123835664        5.9209624759        2.8048348807  CLST      98              1.0000000000
       487        98  DCM       H1              0.1140723260        5.5678622787        1.9598481305  CLST      98              1.0000000000
       488        98  DCM       H2             -0.1544344262        6.9030124322        3.1779253684  CLST      98              1.0000000000
       489        98  DCM       CL1            -2.2020356654        6.0882675742        2.2509253058  CLST      98              1.0000000000
       490        98  DCM       CL2            -0.4286019296        4.7329486974        4.1339943330  CLST      98              1.0000000000
