* CHARMM CGENFF SD/ABNR BEFORE MLPOT (MM ONLY)
*  DATE:     6/28/26      1:59:17      CREATED BY USER: boittier
*
       490  EXT
         1         1  DCM       C               1.0813274525        2.1713923449       -7.2120589498  CLST      1               1.0000000000
         2         1  DCM       H1              0.2827997421        1.6539772297       -6.6395545333  CLST      1               1.0000000000
         3         1  DCM       H2              1.1468743471        3.2404060190       -6.9239499937  CLST      1               1.0000000000
         4         1  DCM       CL1             2.6505236211        1.3813778303       -6.8813854325  CLST      1               1.0000000000
         5         1  DCM       CL2             0.7071622077        2.0702032219       -8.9551180881  CLST      1               1.0000000000
         6         2  DCM       C               5.1865866955        3.9465522167       -8.3184598109  CLST      2               1.0000000000
         7         2  DCM       H1              5.9200771415        4.6892273483       -8.6915583116  CLST      2               1.0000000000
         8         2  DCM       H2              4.8034286725        4.2292028546       -7.3156700427  CLST      2               1.0000000000
         9         2  DCM       CL1             3.8184315885        3.8520687458       -9.4611032633  CLST      2               1.0000000000
        10         2  DCM       CL2             5.9844464848        2.3572479806       -8.1945543908  CLST      2               1.0000000000
        11         3  DCM       C             -11.0374642338       -2.9907322031       -3.3794969477  CLST      3               1.0000000000
        12         3  DCM       H1            -11.5775568432       -3.2268359948       -2.4375177754  CLST      3               1.0000000000
        13         3  DCM       H2             -9.9637526635       -2.7889259948       -3.1817539660  CLST      3               1.0000000000
        14         3  DCM       CL1           -11.1810326866       -4.3810580946       -4.4926370752  CLST      3               1.0000000000
        15         3  DCM       CL2           -11.7800783678       -1.5455801727       -4.1219310844  CLST      3               1.0000000000
        16         4  DCM       C               2.0304923429        6.2182115160        6.3847538903  CLST      4               1.0000000000
        17         4  DCM       H1              3.1191203270        6.0480662877        6.2557171568  CLST      4               1.0000000000
        18         4  DCM       H2              1.8370000792        7.1498481605        6.9568201043  CLST      4               1.0000000000
        19         4  DCM       CL1             1.2531969906        6.3555824685        4.7808792321  CLST      4               1.0000000000
        20         4  DCM       CL2             1.3360122471        4.8389454531        7.2786577529  CLST      4               1.0000000000
        21         5  DCM       C              -1.9409793818        9.3404019887        7.6505160048  CLST      5               1.0000000000
        22         5  DCM       H1             -1.1424178550       10.0862786041        7.8512768540  CLST      5               1.0000000000
        23         5  DCM       H2             -2.4472587162        9.0366892921        8.5905127872  CLST      5               1.0000000000
        24         5  DCM       CL1            -3.1459935414       10.0625825852        6.5470730545  CLST      5               1.0000000000
        25         5  DCM       CL2            -1.2149147282        7.8988787890        6.8863573350  CLST      5               1.0000000000
        26         6  DCM       C               3.4711553499       -0.1256568458       -2.2322457937  CLST      6               1.0000000000
        27         6  DCM       H1              3.6853437164        0.9596637280       -2.1530971949  CLST      6               1.0000000000
        28         6  DCM       H2              2.4437522936       -0.3040422319       -2.6073830431  CLST      6               1.0000000000
        29         6  DCM       CL1             4.6439837103       -0.8601790269       -3.3600215125  CLST      6               1.0000000000
        30         6  DCM       CL2             3.6293781769       -0.8661632029       -0.6163282648  CLST      6               1.0000000000
        31         7  DCM       C               4.3253084122       -6.3784298059        2.0356255951  CLST      7               1.0000000000
        32         7  DCM       H1              3.5099790021       -6.1989110801        1.3041154881  CLST      7               1.0000000000
        33         7  DCM       H2              5.3221069187       -6.2742783655        1.5589380823  CLST      7               1.0000000000
        34         7  DCM       CL1             4.1927783855       -5.1831773444        3.3554524434  CLST      7               1.0000000000
        35         7  DCM       CL2             4.1628766143       -8.0333085121        2.6852432890  CLST      7               1.0000000000
        36         8  DCM       C              -6.7257706351        4.3070472953        8.3469291765  CLST      8               1.0000000000
        37         8  DCM       H1             -5.7619651721        3.9793047502        7.9041108058  CLST      8               1.0000000000
        38         8  DCM       H2             -6.7705768526        5.4126191594        8.4281403593  CLST      8               1.0000000000
        39         8  DCM       CL1            -8.0615678175        3.7430225033        7.3027251591  CLST      8               1.0000000000
        40         8  DCM       CL2            -6.8869650124        3.5912906353        9.9754446318  CLST      8               1.0000000000
        41         9  DCM       C              -4.3678816687        9.2637174661       -7.1992583335  CLST      9               1.0000000000
        42         9  DCM       H1             -3.7654133332        9.6053671373       -6.3305849400  CLST      9               1.0000000000
        43         9  DCM       H2             -4.0170081204        9.7374019134       -8.1402084614  CLST      9               1.0000000000
        44         9  DCM       CL1            -4.2179044320        7.4887003274       -7.3538810117  CLST      9               1.0000000000
        45         9  DCM       CL2            -6.0764118648        9.7107439268       -6.9235431334  CLST      9               1.0000000000
        46        10  DCM       C              -2.9512121581       -5.6309216860       -2.0529632075  CLST      10              1.0000000000
        47        10  DCM       H1             -3.3517017309       -6.1778699881       -2.9310076912  CLST      10              1.0000000000
        48        10  DCM       H2             -1.9647809530       -6.0351962980       -1.7421445195  CLST      10              1.0000000000
        49        10  DCM       CL1            -2.7753534112       -3.9069690256       -2.4855243832  CLST      10              1.0000000000
        50        10  DCM       CL2            -4.1032884321       -5.7992436897       -0.7009638735  CLST      10              1.0000000000
        51        11  DCM       C               7.1504759859        3.8937251312        6.9080937362  CLST      11              1.0000000000
        52        11  DCM       H1              7.7930992333        4.7712862385        7.1309498169  CLST      11              1.0000000000
        53        11  DCM       H2              7.0331518345        3.7546350954        5.8139104240  CLST      11              1.0000000000
        54        11  DCM       CL1             7.9054031156        2.4281984723        7.5977282210  CLST      11              1.0000000000
        55        11  DCM       CL2             5.5412867187        4.1480099372        7.6428023260  CLST      11              1.0000000000
        56        12  DCM       C              -6.3423743704       -6.5088795578       11.0495173937  CLST      12              1.0000000000
        57        12  DCM       H1             -6.5410522463       -6.1749899829       12.0904803794  CLST      12              1.0000000000
        58        12  DCM       H2             -6.9941239547       -5.9709247954       10.3298294512  CLST      12              1.0000000000
        59        12  DCM       CL1            -4.6349343561       -6.1732298676       10.6451691638  CLST      12              1.0000000000
        60        12  DCM       CL2            -6.6649197922       -8.2623309040       10.9245753486  CLST      12              1.0000000000
        61        13  DCM       C               6.2493922677        8.4956864150       -5.9552324948  CLST      13              1.0000000000
        62        13  DCM       H1              5.3293169528        9.0393800935       -6.2574043728  CLST      13              1.0000000000
        63        13  DCM       H2              7.1536830704        8.9671299432       -6.3944258909  CLST      13              1.0000000000
        64        13  DCM       CL1             6.3849993960        8.5165070512       -4.1722940836  CLST      13              1.0000000000
        65        13  DCM       CL2             6.1393378879        6.8084274085       -6.5304505881  CLST      13              1.0000000000
        66        14  DCM       C               5.8139457447       -3.9096961639       -1.1098946137  CLST      14              1.0000000000
        67        14  DCM       H1              6.8315623808       -4.1251819329       -1.4952624231  CLST      14              1.0000000000
        68        14  DCM       H2              5.3261701274       -3.1050773528       -1.6996193893  CLST      14              1.0000000000
        69        14  DCM       CL1             4.8212071509       -5.3900961752       -1.2279278516  CLST      14              1.0000000000
        70        14  DCM       CL2             5.9312086292       -3.3903849992        0.5973415040  CLST      14              1.0000000000
        71        15  DCM       C              -2.9710937574        3.4530301856       11.6660520256  CLST      15              1.0000000000
        72        15  DCM       H1             -2.7142013182        4.3802891468       11.1125766237  CLST      15              1.0000000000
        73        15  DCM       H2             -2.1285570783        3.1291717239       12.3122428561  CLST      15              1.0000000000
        74        15  DCM       CL1            -4.4029626132        3.7715135061       12.6871411334  CLST      15              1.0000000000
        75        15  DCM       CL2            -3.3367027937        2.1574699866       10.4896036476  CLST      15              1.0000000000
        76        16  DCM       C             -10.6965732480        0.8362980621       -1.2986397869  CLST      16              1.0000000000
        77        16  DCM       H1            -11.1830698540        0.7944805617       -2.2968332474  CLST      16              1.0000000000
        78        16  DCM       H2            -11.2064900769        1.5659199847       -0.6362557698  CLST      16              1.0000000000
        79        16  DCM       CL1           -10.7753885861       -0.7840784472       -0.5482822786  CLST      16              1.0000000000
        80        16  DCM       CL2            -8.9899636423        1.3292160367       -1.5010519866  CLST      16              1.0000000000
        81        17  DCM       C               2.5986820855       -7.8185594158        5.7508165182  CLST      17              1.0000000000
        82        17  DCM       H1              3.3865450076       -7.0791007784        5.4965899172  CLST      17              1.0000000000
        83        17  DCM       H2              2.0610103286       -8.1606475501        4.8419437703  CLST      17              1.0000000000
        84        17  DCM       CL1             3.3656028636       -9.2288873069        6.5343674295  CLST      17              1.0000000000
        85        17  DCM       CL2             1.4292984173       -7.0564253071        6.8640817187  CLST      17              1.0000000000
        86        18  DCM       C              -2.3199882143       -0.3487206159        2.8425992787  CLST      18              1.0000000000
        87        18  DCM       H1             -2.9625714421       -0.7674213298        3.6456722415  CLST      18              1.0000000000
        88        18  DCM       H2             -1.2456207535       -0.4997433611        3.0783646229  CLST      18              1.0000000000
        89        18  DCM       CL1            -2.7096873387       -1.1741931396        1.3055316067  CLST      18              1.0000000000
        90        18  DCM       CL2            -2.6413881207        1.4035387073        2.6906444947  CLST      18              1.0000000000
        91        19  DCM       C              10.4658221843        6.2682231806       -1.5001976252  CLST      19              1.0000000000
        92        19  DCM       H1             11.1115448353        6.4894044123       -2.3749191203  CLST      19              1.0000000000
        93        19  DCM       H2             11.0181212818        6.4285679855       -0.5499580001  CLST      19              1.0000000000
        94        19  DCM       CL1             9.0408456426        7.3465335976       -1.5367330941  CLST      19              1.0000000000
        95        19  DCM       CL2             9.9342586954        4.5641597336       -1.5838983070  CLST      19              1.0000000000
        96        20  DCM       C               3.8478507316        7.4828318719      -10.1976942325  CLST      20              1.0000000000
        97        20  DCM       H1              3.3787902087        6.5726946500      -10.6284611157  CLST      20              1.0000000000
        98        20  DCM       H2              3.6288297999        8.3758938828      -10.8198148682  CLST      20              1.0000000000
        99        20  DCM       CL1             3.2024213061        7.7465651942       -8.5511846874  CLST      20              1.0000000000
       100        20  DCM       CL2             5.6185529903        7.2454016865      -10.1255144170  CLST      20              1.0000000000
       101        21  DCM       C              -7.9461177758       -8.6531180797        2.9203350038  CLST      21              1.0000000000
       102        21  DCM       H1             -8.0469623347       -8.7739974891        1.8201598219  CLST      21              1.0000000000
       103        21  DCM       H2             -8.8850836827       -8.2685344633        3.3707828350  CLST      21              1.0000000000
       104        21  DCM       CL1            -7.5663240884      -10.2423912537        3.6440332843  CLST      21              1.0000000000
       105        21  DCM       CL2            -6.6237389915       -7.4986538759        3.2599609133  CLST      21              1.0000000000
       106        22  DCM       C              -3.9815278485       -3.0032067470       -7.6072586549  CLST      22              1.0000000000
       107        22  DCM       H1             -3.8454358995       -1.9800170141       -8.0187161662  CLST      22              1.0000000000
       108        22  DCM       H2             -4.9517828907       -3.4367096385       -7.9271476641  CLST      22              1.0000000000
       109        22  DCM       CL1            -3.9416826667       -2.9191490920       -5.8226897939  CLST      22              1.0000000000
       110        22  DCM       CL2            -2.6594027290       -4.0515665876       -8.1967694939  CLST      22              1.0000000000
       111        23  DCM       C              -2.1939626882       -6.6911266242       -5.6190554736  CLST      23              1.0000000000
       112        23  DCM       H1             -1.7295604208       -6.7725718332       -6.6233985775  CLST      23              1.0000000000
       113        23  DCM       H2             -1.8438084432       -5.7793760397       -5.0906221166  CLST      23              1.0000000000
       114        23  DCM       CL1            -3.9687726224       -6.6057727689       -5.8023301136  CLST      23              1.0000000000
       115        23  DCM       CL2            -1.7552870980       -8.1263885926       -4.6488649645  CLST      23              1.0000000000
       116        24  DCM       C              -2.1762018374        3.7773696493        7.3361767289  CLST      24              1.0000000000
       117        24  DCM       H1             -1.1626246106        3.6570333502        7.7731609577  CLST      24              1.0000000000
       118        24  DCM       H2             -2.7386709278        2.8234829351        7.3860578888  CLST      24              1.0000000000
       119        24  DCM       CL1            -2.0222924578        4.2784248380        5.6285953278  CLST      24              1.0000000000
       120        24  DCM       CL2            -3.0564782566        5.0310664202        8.2533742103  CLST      24              1.0000000000
       121        25  DCM       C              -1.4450877201       -0.5415325484        8.1541385093  CLST      25              1.0000000000
       122        25  DCM       H1             -2.3416990331       -0.3772094568        8.7896206077  CLST      25              1.0000000000
       123        25  DCM       H2             -0.9212419007       -1.4794156116        8.4349131067  CLST      25              1.0000000000
       124        25  DCM       CL1            -1.9572675532       -0.6538024658        6.4450943144  CLST      25              1.0000000000
       125        25  DCM       CL2            -0.3237292553        0.8352207193        8.3648908891  CLST      25              1.0000000000
       126        26  DCM       C               9.0379814783        5.9427308512        2.0758800798  CLST      26              1.0000000000
       127        26  DCM       H1              8.9452039057        7.0171068596        2.3423593536  CLST      26              1.0000000000
       128        26  DCM       H2              8.7070950640        5.7576750915        1.0325854433  CLST      26              1.0000000000
       129        26  DCM       CL1            10.7474961918        5.4494359057        2.2389026058  CLST      26              1.0000000000
       130        26  DCM       CL2             8.0196512160        4.9778673982        3.1810401283  CLST      26              1.0000000000
       131        27  DCM       C              11.1336802110        5.7488297259        5.8899192725  CLST      27              1.0000000000
       132        27  DCM       H1             11.6121096750        5.8689515667        6.8848486169  CLST      27              1.0000000000
       133        27  DCM       H2             11.8368747531        6.0186605950        5.0736886264  CLST      27              1.0000000000
       134        27  DCM       CL1            10.6312875102        4.0455155109        5.6860440365  CLST      27              1.0000000000
       135        27  DCM       CL2             9.7029526175        6.8156296199        5.8011379413  CLST      27              1.0000000000
       136        28  DCM       C              -4.9817779992        6.9607432923       10.7393041779  CLST      28              1.0000000000
       137        28  DCM       H1             -5.8093700191        7.2777525666       11.4083811287  CLST      28              1.0000000000
       138        28  DCM       H2             -5.0329270603        5.8716876383       10.5312838498  CLST      28              1.0000000000
       139        28  DCM       CL1            -5.0992631290        7.8546392428        9.1964610397  CLST      28              1.0000000000
       140        28  DCM       CL2            -3.4241136299        7.3263345726       11.5322205685  CLST      28              1.0000000000
       141        29  DCM       C              -0.5916331048       -1.9506448919       -4.4221899531  CLST      29              1.0000000000
       142        29  DCM       H1             -0.5674464029       -2.2184186849       -3.3467957941  CLST      29              1.0000000000
       143        29  DCM       H2             -1.5857992555       -1.5505096947       -4.7135022249  CLST      29              1.0000000000
       144        29  DCM       CL1            -0.2483806853       -3.4072821221       -5.3982883085  CLST      29              1.0000000000
       145        29  DCM       CL2             0.6443495920       -0.7025167729       -4.7347704227  CLST      29              1.0000000000
       146        30  DCM       C               4.2593295561       -3.9132522491       -6.0154909917  CLST      30              1.0000000000
       147        30  DCM       H1              3.6175726029       -4.8178106055       -6.0645960459  CLST      30              1.0000000000
       148        30  DCM       H2              4.7189740724       -3.8033013174       -5.0095198240  CLST      30              1.0000000000
       149        30  DCM       CL1             5.5546168497       -4.0487938875       -7.2379321066  CLST      30              1.0000000000
       150        30  DCM       CL2             3.2605694225       -2.4737758194       -6.3565508609  CLST      30              1.0000000000
       151        31  DCM       C               0.0348839209        2.8722559044       -3.5215755377  CLST      31              1.0000000000
       152        31  DCM       H1             -0.3347600413        3.0196528677       -2.4856442385  CLST      31              1.0000000000
       153        31  DCM       H2             -0.4286086663        1.9757517064       -3.9833263337  CLST      31              1.0000000000
       154        31  DCM       CL1            -0.3695007510        4.3113156977       -4.4933798475  CLST      31              1.0000000000
       155        31  DCM       CL2             1.8048901263        2.6602470744       -3.4912885919  CLST      31              1.0000000000
       156        32  DCM       C               4.1108609343        5.5112564901        2.7355523516  CLST      32              1.0000000000
       157        32  DCM       H1              4.9806009268        5.7442112214        2.0874092374  CLST      32              1.0000000000
       158        32  DCM       H2              3.6022115082        6.4415397039        3.0635815055  CLST      32              1.0000000000
       159        32  DCM       CL1             2.9536335611        4.5095491556        1.8201488715  CLST      32              1.0000000000
       160        32  DCM       CL2             4.6809289051        4.6131344598        4.1674593267  CLST      32              1.0000000000
       161        33  DCM       C               9.6767750244        6.6633019656       -5.3185565610  CLST      33              1.0000000000
       162        33  DCM       H1              9.5838098176        7.2304803708       -4.3691680847  CLST      33              1.0000000000
       163        33  DCM       H2              8.7475627045        6.1003778846       -5.5374862688  CLST      33              1.0000000000
       164        33  DCM       CL1             9.9854600587        7.8118055312       -6.6521737608  CLST      33              1.0000000000
       165        33  DCM       CL2            11.0297547294        5.5034775517       -5.1834188716  CLST      33              1.0000000000
       166        34  DCM       C               0.5137923455       -1.5492059254       -8.5536799354  CLST      34              1.0000000000
       167        34  DCM       H1              0.7893897916       -2.4753856750       -8.0105804331  CLST      34              1.0000000000
       168        34  DCM       H2              1.3112567008       -0.7832348294       -8.4577844833  CLST      34              1.0000000000
       169        34  DCM       CL1             0.2763487763       -1.9308420968      -10.2821748437  CLST      34              1.0000000000
       170        34  DCM       CL2            -1.0003211866       -0.9013231103       -7.8646699509  CLST      34              1.0000000000
       171        35  DCM       C               9.9344979938        6.9156058164       10.1419162427  CLST      35              1.0000000000
       172        35  DCM       H1             10.5670466609        6.7645422407       11.0422166498  CLST      35              1.0000000000
       173        35  DCM       H2              8.9141342161        7.2503164601       10.4245532009  CLST      35              1.0000000000
       174        35  DCM       CL1            10.6833236240        8.1592606414        9.0991371586  CLST      35              1.0000000000
       175        35  DCM       CL2             9.8152062358        5.3709048960        9.2508569318  CLST      35              1.0000000000
       176        36  DCM       C              -0.9547355111       -6.8582350848        9.8191370394  CLST      36              1.0000000000
       177        36  DCM       H1             -0.6329127595       -7.5421101855        9.0067675497  CLST      36              1.0000000000
       178        36  DCM       H2             -1.9082892778       -6.3541383999        9.5576137224  CLST      36              1.0000000000
       179        36  DCM       CL1            -1.1885377042       -7.8074062161       11.3158612053  CLST      36              1.0000000000
       180        36  DCM       CL2             0.3084665719       -5.6187939286       10.0708425766  CLST      36              1.0000000000
       181        37  DCM       C               3.7808313441        7.9590946431       10.1084255028  CLST      37              1.0000000000
       182        37  DCM       H1              4.8452319912        8.1040574346       10.3909576556  CLST      37              1.0000000000
       183        37  DCM       H2              3.1059462585        8.2923605382       10.9238878240  CLST      37              1.0000000000
       184        37  DCM       CL1             3.4314576241        8.9078024865        8.6345970043  CLST      37              1.0000000000
       185        37  DCM       CL2             3.4997288700        6.2250154037        9.7899817920  CLST      37              1.0000000000
       186        38  DCM       C               4.3195905969       -0.6676853512       -9.5906301167  CLST      38              1.0000000000
       187        38  DCM       H1              3.7191060712       -0.8746232742       -8.6808304550  CLST      38              1.0000000000
       188        38  DCM       H2              5.2498870953       -0.1237965711       -9.3344625580  CLST      38              1.0000000000
       189        38  DCM       CL1             4.7535370222       -2.2135793679      -10.3721894875  CLST      38              1.0000000000
       190        38  DCM       CL2             3.3499381875        0.3285252234      -10.7121471707  CLST      38              1.0000000000
       191        39  DCM       C              -4.3924635885       -4.2772567118        3.3980397153  CLST      39              1.0000000000
       192        39  DCM       H1             -3.8148443257       -3.4403248605        3.8445390271  CLST      39              1.0000000000
       193        39  DCM       H2             -4.9997008180       -4.8001318681        4.1671096889  CLST      39              1.0000000000
       194        39  DCM       CL1            -5.4784653280       -3.6267924401        2.1347524940  CLST      39              1.0000000000
       195        39  DCM       CL2            -3.2511794519       -5.4453017246        2.6735845790  CLST      39              1.0000000000
       196        40  DCM       C              -8.0223554910       11.4626159867       10.8647904759  CLST      40              1.0000000000
       197        40  DCM       H1             -7.4582381568       11.8835977787       10.0050137710  CLST      40              1.0000000000
       198        40  DCM       H2             -8.1262842062       12.2098233432       11.6801850815  CLST      40              1.0000000000
       199        40  DCM       CL1            -9.6514941668       10.9800279817       10.3111665659  CLST      40              1.0000000000
       200        40  DCM       CL2            -7.1489394192       10.0351159052       11.4922446401  CLST      40              1.0000000000
       201        41  DCM       C              -2.5902681668        0.9163630726      -10.5021883864  CLST      41              1.0000000000
       202        41  DCM       H1             -2.8094689974        1.5403554375      -11.3942442647  CLST      41              1.0000000000
       203        41  DCM       H2             -1.4997812291        0.7352529279      -10.4009934954  CLST      41              1.0000000000
       204        41  DCM       CL1            -3.1800581480        1.7631297851       -9.0415145499  CLST      41              1.0000000000
       205        41  DCM       CL2            -3.4243105479       -0.6564941447      -10.6702108942  CLST      41              1.0000000000
       206        42  DCM       C              -0.2444828671        6.0723814826       -8.6086757445  CLST      42              1.0000000000
       207        42  DCM       H1             -0.7961258269        7.0043325954       -8.8616308879  CLST      42              1.0000000000
       208        42  DCM       H2              0.5454164569        6.2655918505       -7.8558574786  CLST      42              1.0000000000
       209        42  DCM       CL1            -1.4023039529        4.8807770519       -7.9489306784  CLST      42              1.0000000000
       210        42  DCM       CL2             0.5129673042        5.4356712702      -10.0963505557  CLST      42              1.0000000000
       211        43  DCM       C               6.2476152988       -7.5620428804       -7.8322917017  CLST      43              1.0000000000
       212        43  DCM       H1              6.4254243633       -6.8137607623       -7.0321174681  CLST      43              1.0000000000
       213        43  DCM       H2              6.7496739543       -7.2629259286       -8.7771002976  CLST      43              1.0000000000
       214        43  DCM       CL1             6.8931828052       -9.1404535756       -7.2976448562  CLST      43              1.0000000000
       215        43  DCM       CL2             4.4896462483       -7.6923755491       -8.1245617399  CLST      43              1.0000000000
       216        44  DCM       C              -6.8036865335        6.7441492408       -4.6892012963  CLST      44              1.0000000000
       217        44  DCM       H1             -7.6698086495        7.3266893227       -5.0816002710  CLST      44              1.0000000000
       218        44  DCM       H2             -6.2408217388        6.2677869316       -5.5141105069  CLST      44              1.0000000000
       219        44  DCM       CL1            -5.7171172830        7.8506367395       -3.8021245637  CLST      44              1.0000000000
       220        44  DCM       CL2            -7.4035255654        5.4762142495       -3.5824799203  CLST      44              1.0000000000
       221        45  DCM       C               7.1749702870        9.2073434833        8.0857354910  CLST      45              1.0000000000
       222        45  DCM       H1              6.3638493226        9.6865766207        7.4945454468  CLST      45              1.0000000000
       223        45  DCM       H2              8.1648739420        9.3740901512        7.6139771753  CLST      45              1.0000000000
       224        45  DCM       CL1             7.1831382365        9.9039181068        9.7314495176  CLST      45              1.0000000000
       225        45  DCM       CL2             6.8641690939        7.4509957789        8.1774324418  CLST      45              1.0000000000
       226        46  DCM       C              -5.0923753944        1.5393539543        5.6800182255  CLST      46              1.0000000000
       227        46  DCM       H1             -4.0721009140        1.8636446077        5.3854943138  CLST      46              1.0000000000
       228        46  DCM       H2             -5.8342261595        2.3480138205        5.5051963408  CLST      46              1.0000000000
       229        46  DCM       CL1            -5.5514979352        0.1095669260        4.7099042187  CLST      46              1.0000000000
       230        46  DCM       CL2            -5.0943117271        1.1139031970        7.4161940539  CLST      46              1.0000000000
       231        47  DCM       C               1.8849891519        2.4526179601        4.6192369293  CLST      47              1.0000000000
       232        47  DCM       H1              2.2924429041        2.0705548490        3.6595628799  CLST      47              1.0000000000
       233        47  DCM       H2              1.7889689228        3.5550133878        4.5943792656  CLST      47              1.0000000000
       234        47  DCM       CL1             2.9879917769        1.9918884438        5.9489135051  CLST      47              1.0000000000
       235        47  DCM       CL2             0.2715527979        1.7377144897        4.8865004700  CLST      47              1.0000000000
       236        48  DCM       C               0.9088622926       -5.5224870732       -8.5976153533  CLST      48              1.0000000000
       237        48  DCM       H1              0.1592146859       -4.7263561257       -8.4085355483  CLST      48              1.0000000000
       238        48  DCM       H2              0.5434607099       -6.2444120758       -9.3574410292  CLST      48              1.0000000000
       239        48  DCM       CL1             2.4183213132       -4.7698206032       -9.1865910147  CLST      48              1.0000000000
       240        48  DCM       CL2             1.2248322934       -6.3941188053       -7.0716487965  CLST      48              1.0000000000
       241        49  DCM       C              -2.0689273383       -6.9580471877        5.9364253706  CLST      49              1.0000000000
       242        49  DCM       H1             -1.4894553176       -6.9459323859        4.9903522312  CLST      49              1.0000000000
       243        49  DCM       H2             -1.6704180484       -7.7205293906        6.6375231834  CLST      49              1.0000000000
       244        49  DCM       CL1            -1.9761601203       -5.3441853255        6.6997207427  CLST      49              1.0000000000
       245        49  DCM       CL2            -3.7682351285       -7.3472696172        5.5575889959  CLST      49              1.0000000000
       246        50  DCM       C             -10.1282159305       -6.8838526295       10.0188230421  CLST      50              1.0000000000
       247        50  DCM       H1            -11.2038910792       -7.1270322316        9.8863512623  CLST      50              1.0000000000
       248        50  DCM       H2             -9.4848782211       -7.7353149429        9.7126132936  CLST      50              1.0000000000
       249        50  DCM       CL1            -9.8225360065       -6.5128192146       11.7404658304  CLST      50              1.0000000000
       250        50  DCM       CL2            -9.7277889788       -5.4622297164        9.0131316710  CLST      50              1.0000000000
       251        51  DCM       C              -5.2215950904       -8.5958735790       -2.8564348268  CLST      51              1.0000000000
       252        51  DCM       H1             -5.6627894937       -7.5811776058       -2.9469843295  CLST      51              1.0000000000
       253        51  DCM       H2             -4.1125504943       -8.5487836125       -2.8419167798  CLST      51              1.0000000000
       254        51  DCM       CL1            -5.7882725945       -9.3451495911       -1.3359380378  CLST      51              1.0000000000
       255        51  DCM       CL2            -5.7421607793       -9.5811068989       -4.2528220883  CLST      51              1.0000000000
       256        52  DCM       C              -0.1221058630        6.8062120786       10.0360072821  CLST      52              1.0000000000
       257        52  DCM       H1             -1.1635926862        6.9092259189        9.6663084868  CLST      52              1.0000000000
       258        52  DCM       H2              0.6082319962        6.9334117381        9.2111107546  CLST      52              1.0000000000
       259        52  DCM       CL1             0.1817331588        8.0582756529       11.2730861065  CLST      52              1.0000000000
       260        52  DCM       CL2             0.0785514527        5.1805490563       10.7502627275  CLST      52              1.0000000000
       261        53  DCM       C              -6.9233061393       -8.3026537809        7.0918825918  CLST      53              1.0000000000
       262        53  DCM       H1             -6.5074774928       -8.8639662369        7.9563941452  CLST      53              1.0000000000
       263        53  DCM       H2             -6.4106395692       -8.5872115179        6.1507792549  CLST      53              1.0000000000
       264        53  DCM       CL1            -8.6641480878       -8.6731629172        6.9366633995  CLST      53              1.0000000000
       265        53  DCM       CL2            -6.6976910937       -6.5521215249        7.3721062406  CLST      53              1.0000000000
       266        54  DCM       C               0.9974678852      -10.6785250747        9.1871930229  CLST      54              1.0000000000
       267        54  DCM       H1              0.3500249915      -11.1224460564        9.9727327806  CLST      54              1.0000000000
       268        54  DCM       H2              1.7426132799      -11.4143194076        8.8173155578  CLST      54              1.0000000000
       269        54  DCM       CL1             1.8616526389       -9.2729058842        9.8741513159  CLST      54              1.0000000000
       270        54  DCM       CL2            -0.0259908386      -10.1555041338        7.8187669938  CLST      54              1.0000000000
       271        55  DCM       C               3.7712872628       11.7232053774       11.0695604099  CLST      55              1.0000000000
       272        55  DCM       H1              3.9009619766       12.7860080278       11.3615228879  CLST      55              1.0000000000
       273        55  DCM       H2              4.2469442501       11.5176673504       10.0862464048  CLST      55              1.0000000000
       274        55  DCM       CL1             4.5307682860       10.6827585780       12.3093797377  CLST      55              1.0000000000
       275        55  DCM       CL2             2.0238270168       11.3586135878       10.9591789116  CLST      55              1.0000000000
       276        56  DCM       C               6.3469144268       -7.2218178341       -3.9210384478  CLST      56              1.0000000000
       277        56  DCM       H1              6.8785731421       -8.0146902061       -4.4882130095  CLST      56              1.0000000000
       278        56  DCM       H2              6.3814413392       -7.4218559024       -2.8298694005  CLST      56              1.0000000000
       279        56  DCM       CL1             4.6403972327       -7.1750319421       -4.4488821792  CLST      56              1.0000000000
       280        56  DCM       CL2             7.1246573310       -5.6455161872       -4.2461289738  CLST      56              1.0000000000
       281        57  DCM       C               0.7186647851       -4.4020937275        4.2577577275  CLST      57              1.0000000000
       282        57  DCM       H1              1.6393183782       -3.8834919152        3.9229787626  CLST      57              1.0000000000
       283        57  DCM       H2              0.7662966867       -4.6375552987        5.3413556581  CLST      57              1.0000000000
       284        57  DCM       CL1            -0.6812575628       -3.3331116511        3.9594970775  CLST      57              1.0000000000
       285        57  DCM       CL2             0.5477082595       -5.9181580105        3.3263160233  CLST      57              1.0000000000
       286        58  DCM       C               6.2569918411        1.3987698352        2.6343463131  CLST      58              1.0000000000
       287        58  DCM       H1              6.8530186912        0.6199142524        2.1129609154  CLST      58              1.0000000000
       288        58  DCM       H2              6.6152756613        2.4171849082        2.3747894251  CLST      58              1.0000000000
       289        58  DCM       CL1             6.3926969020        1.1615074056        4.3998507354  CLST      58              1.0000000000
       290        58  DCM       CL2             4.5516933914        1.2472299805        2.1390484882  CLST      58              1.0000000000
       291        59  DCM       C               6.5850353366        2.1862816128      -11.7615150539  CLST      59              1.0000000000
       292        59  DCM       H1              6.5106506776        2.0962411027      -12.8661196637  CLST      59              1.0000000000
       293        59  DCM       H2              5.5778843950        2.2057912900      -11.2950475526  CLST      59              1.0000000000
       294        59  DCM       CL1             7.4951918905        0.7866847965      -11.1217940992  CLST      59              1.0000000000
       295        59  DCM       CL2             7.4395295231        3.7029381998      -11.3561334593  CLST      59              1.0000000000
       296        60  DCM       C               6.2905689722        7.8211795586        4.5771829338  CLST      60              1.0000000000
       297        60  DCM       H1              6.1577270314        7.3633268121        3.5758017720  CLST      60              1.0000000000
       298        60  DCM       H2              6.7166803505        7.0873792807        5.2921782500  CLST      60              1.0000000000
       299        60  DCM       CL1             7.3979688512        9.2150115675        4.4267808736  CLST      60              1.0000000000
       300        60  DCM       CL2             4.7005226867        8.3710559395        5.1779491963  CLST      60              1.0000000000
       301        61  DCM       C               0.5062700227       -2.9260389040        0.3637172782  CLST      61              1.0000000000
       302        61  DCM       H1              0.6055221248       -2.5586392514       -0.6805359940  CLST      61              1.0000000000
       303        61  DCM       H2              0.2248189850       -2.1023339851        1.0492641524  CLST      61              1.0000000000
       304        61  DCM       CL1            -0.7627584381       -4.1781356834        0.4287621091  CLST      61              1.0000000000
       305        61  DCM       CL2             2.0676126560       -3.6237326249        0.8789359676  CLST      61              1.0000000000
       306        62  DCM       C               9.6428065828        2.9305222913       -8.1450676274  CLST      62              1.0000000000
       307        62  DCM       H1             10.7223349247        3.0762370624       -8.3626511530  CLST      62              1.0000000000
       308        62  DCM       H2              9.1520711690        2.3301077435       -8.9393875440  CLST      62              1.0000000000
       309        62  DCM       CL1             9.4799379063        2.0767755300       -6.5841287884  CLST      62              1.0000000000
       310        62  DCM       CL2             8.8482820571        4.5283727966       -8.0565239815  CLST      62              1.0000000000
       311        63  DCM       C               0.6878300632        5.6103334199       -0.7603690604  CLST      63              1.0000000000
       312        63  DCM       H1              1.2384205134        6.0530494074        0.0962756053  CLST      63              1.0000000000
       313        63  DCM       H2              1.2969099646        4.8346721831       -1.2704612444  CLST      63              1.0000000000
       314        63  DCM       CL1            -0.8184816504        4.8700191961       -0.1503809572  CLST      63              1.0000000000
       315        63  DCM       CL2             0.2980150752        6.9097656087       -1.9206606868  CLST      63              1.0000000000
       316        64  DCM       C              -4.3790004793      -10.9986435858        5.0889626160  CLST      64              1.0000000000
       317        64  DCM       H1             -4.7642107201      -10.0185723042        4.7373826547  CLST      64              1.0000000000
       318        64  DCM       H2             -4.5264380891      -11.7834343265        4.3163388305  CLST      64              1.0000000000
       319        64  DCM       CL1            -2.6329813700      -10.8436845952        5.4355339309  CLST      64              1.0000000000
       320        64  DCM       CL2            -5.2555531768      -11.4702877981        6.5742563161  CLST      64              1.0000000000
       321        65  DCM       C              11.0190749559        2.1314348995      -11.9310496083  CLST      65              1.0000000000
       322        65  DCM       H1             10.0045504043        2.0389831430      -12.3748484029  CLST      65              1.0000000000
       323        65  DCM       H2             11.8065827721        1.9655145735      -12.6952741348  CLST      65              1.0000000000
       324        65  DCM       CL1            11.2059994486        3.7747567506      -11.2523506310  CLST      65              1.0000000000
       325        65  DCM       CL2            11.2009330221        0.9121895563      -10.6355927065  CLST      65              1.0000000000
       326        66  DCM       C               7.6302327046       -1.0046419530       -7.7074153251  CLST      66              1.0000000000
       327        66  DCM       H1              7.9394537565       -0.0770708263       -8.2331830152  CLST      66              1.0000000000
       328        66  DCM       H2              7.1060202717       -1.7000807783       -8.3969326706  CLST      66              1.0000000000
       329        66  DCM       CL1             9.0830796623       -1.8166467608       -7.0592073048  CLST      66              1.0000000000
       330        66  DCM       CL2             6.5292059682       -0.5737018775       -6.3676272788  CLST      66              1.0000000000
       331        67  DCM       C              -8.9214428898        2.6229155916       -5.0442277436  CLST      67              1.0000000000
       332        67  DCM       H1             -8.9854537842        3.4549967436       -5.7783802795  CLST      67              1.0000000000
       333        67  DCM       H2             -8.7918666472        3.0085432196       -4.0122548930  CLST      67              1.0000000000
       334        67  DCM       CL1           -10.4281977363        1.6664246918       -5.1122575049  CLST      67              1.0000000000
       335        67  DCM       CL2            -7.5220552279        1.5910581407       -5.4570653634  CLST      67              1.0000000000
       336        68  DCM       C               2.9585904220        6.6051244447       -4.5639932860  CLST      68              1.0000000000
       337        68  DCM       H1              3.7028554620        7.3495732329       -4.9138257939  CLST      68              1.0000000000
       338        68  DCM       H2              1.9962625635        7.0958058339       -4.3134020047  CLST      68              1.0000000000
       339        68  DCM       CL1             2.6799251776        5.4094585693       -5.8581429590  CLST      68              1.0000000000
       340        68  DCM       CL2             3.5925408849        5.7901208236       -3.1081402707  CLST      68              1.0000000000
       341        69  DCM       C              -3.6107451229        4.8417578168       -2.9095553575  CLST      69              1.0000000000
       342        69  DCM       H1             -2.6973117628        5.4610446200       -2.7704605279  CLST      69              1.0000000000
       343        69  DCM       H2             -4.4975249134        5.3356237213       -2.4619702906  CLST      69              1.0000000000
       344        69  DCM       CL1            -3.8895799785        4.6063235503       -4.6603947480  CLST      69              1.0000000000
       345        69  DCM       CL2            -3.3675547509        3.2578767081       -2.1173761240  CLST      69              1.0000000000
       346        70  DCM       C              -7.7486778483        7.9800815562       -9.6761655312  CLST      70              1.0000000000
       347        70  DCM       H1             -8.4665100433        7.6798286954      -10.4700502553  CLST      70              1.0000000000
       348        70  DCM       H2             -8.0521276898        8.9377375407       -9.2050071049  CLST      70              1.0000000000
       349        70  DCM       CL1            -7.6976347156        6.7039753818       -8.4231537760  CLST      70              1.0000000000
       350        70  DCM       CL2            -6.1289507952        8.1829032113      -10.4065654649  CLST      70              1.0000000000
       351        71  DCM       C              -1.2249301732        7.6576569849       -5.2839645363  CLST      71              1.0000000000
       352        71  DCM       H1             -0.2960900395        7.2366567794       -4.8522960046  CLST      71              1.0000000000
       353        71  DCM       H2             -1.8509933211        6.8567646415       -5.7353054006  CLST      71              1.0000000000
       354        71  DCM       CL1            -2.1588371106        8.4599140676       -3.9903859099  CLST      71              1.0000000000
       355        71  DCM       CL2            -0.7913034087        8.8499019954       -6.5420142880  CLST      71              1.0000000000
       356        72  DCM       C             -10.0975419160        6.2715477979        9.6712476606  CLST      72              1.0000000000
       357        72  DCM       H1            -10.7150471789        5.6314768510       10.3374529253  CLST      72              1.0000000000
       358        72  DCM       H2             -9.7881346477        5.7187500268        8.7600658686  CLST      72              1.0000000000
       359        72  DCM       CL1           -11.0554338571        7.7004445851        9.1861767319  CLST      72              1.0000000000
       360        72  DCM       CL2            -8.6379707175        6.7950528935       10.5592253888  CLST      72              1.0000000000
       361        73  DCM       C               5.3634672432        3.1023576777       -0.8855141279  CLST      73              1.0000000000
       362        73  DCM       H1              5.0057277488        3.4881547634       -1.8604517711  CLST      73              1.0000000000
       363        73  DCM       H2              4.5076805652        2.7858543293       -0.2519395232  CLST      73              1.0000000000
       364        73  DCM       CL1             6.4364115499        1.7014352872       -1.1673946094  CLST      73              1.0000000000
       365        73  DCM       CL2             6.2723165981        4.3896415315       -0.0458643635  CLST      73              1.0000000000
       366        74  DCM       C              -6.6471651090       -1.7425235926       -1.5944416047  CLST      74              1.0000000000
       367        74  DCM       H1             -6.5314414449       -0.8167231685       -0.9917677932  CLST      74              1.0000000000
       368        74  DCM       H2             -5.6766361762       -2.2754166840       -1.6981802052  CLST      74              1.0000000000
       369        74  DCM       CL1            -7.8177028994       -2.8207604904       -0.7859710401  CLST      74              1.0000000000
       370        74  DCM       CL2            -7.2529872257       -1.3117405113       -3.2197395482  CLST      74              1.0000000000
       371        75  DCM       C               2.8766684843       -1.2660110164        4.3458328201  CLST      75              1.0000000000
       372        75  DCM       H1              3.3588275189       -2.2417038423        4.1239485144  CLST      75              1.0000000000
       373        75  DCM       H2              3.6384103533       -0.4738571930        4.5018086794  CLST      75              1.0000000000
       374        75  DCM       CL1             1.8369633021       -0.8038883954        2.9697821099  CLST      75              1.0000000000
       375        75  DCM       CL2             1.8827454541       -1.4210556962        5.8248324790  CLST      75              1.0000000000
       376        76  DCM       C               1.2266716447       -4.9802328452       -2.4098776945  CLST      76              1.0000000000
       377        76  DCM       H1              1.5736759511       -5.3499777695       -1.4230083807  CLST      76              1.0000000000
       378        76  DCM       H2              0.1934433178       -4.5784780990       -2.3502109248  CLST      76              1.0000000000
       379        76  DCM       CL1             1.2460347517       -6.3349248600       -3.5690168749  CLST      76              1.0000000000
       380        76  DCM       CL2             2.3198400900       -3.6799766840       -2.9644842475  CLST      76              1.0000000000
       381        77  DCM       C              -9.9569448270       -4.0275982626       -9.2781988819  CLST      77              1.0000000000
       382        77  DCM       H1             -9.0182337585       -3.4443743699       -9.3854591564  CLST      77              1.0000000000
       383        77  DCM       H2            -10.8282025213       -3.3573330366       -9.1174722872  CLST      77              1.0000000000
       384        77  DCM       CL1           -10.2239293090       -4.9805059347      -10.7666937463  CLST      77              1.0000000000
       385        77  DCM       CL2            -9.8030524544       -5.1239214795       -7.8752633290  CLST      77              1.0000000000
       386        78  DCM       C               9.9199728045        1.7844294031        2.7731459507  CLST      78              1.0000000000
       387        78  DCM       H1             10.9864493525        2.0719385660        2.8888890553  CLST      78              1.0000000000
       388        78  DCM       H2              9.2822175999        2.3178448283        3.5081947708  CLST      78              1.0000000000
       389        78  DCM       CL1             9.3791075815        2.2008677910        1.1205212031  CLST      78              1.0000000000
       390        78  DCM       CL2             9.7564277868        0.0243846527        3.0380137039  CLST      78              1.0000000000
       391        79  DCM       C               1.7572816029       10.2114560737       -4.0658823867  CLST      79              1.0000000000
       392        79  DCM       H1              0.8616311599        9.5625285772       -3.9868003033  CLST      79              1.0000000000
       393        79  DCM       H2              1.4888182397       11.2810144956       -3.9186239840  CLST      79              1.0000000000
       394        79  DCM       CL1             2.9358775284        9.7326967717       -2.8121572311  CLST      79              1.0000000000
       395        79  DCM       CL2             2.4902342199       10.0132132562       -5.6841590709  CLST      79              1.0000000000
       396        80  DCM       C              -3.8663529412      -10.1815317567        9.9790229853  CLST      80              1.0000000000
       397        80  DCM       H1             -3.7644956727       -9.6552151928       10.9522163357  CLST      80              1.0000000000
       398        80  DCM       H2             -4.8904114225      -10.5901047088        9.8493767603  CLST      80              1.0000000000
       399        80  DCM       CL1            -3.5334032363       -9.0250696408        8.6597029620  CLST      80              1.0000000000
       400        80  DCM       CL2            -2.6925772951      -11.5269084831        9.9159510866  CLST      80              1.0000000000
       401        81  DCM       C               7.6228166726       -8.1172927621        0.8297994704  CLST      81              1.0000000000
       402        81  DCM       H1              8.5064559002       -8.7868598569        0.7762451941  CLST      81              1.0000000000
       403        81  DCM       H2              7.2454676254       -8.0376324011        1.8718918777  CLST      81              1.0000000000
       404        81  DCM       CL1             8.0902199871       -6.4915247209        0.2519397935  CLST      81              1.0000000000
       405        81  DCM       CL2             6.3246797824       -8.7765447911       -0.2075530143  CLST      81              1.0000000000
       406        82  DCM       C              -9.0985408924       -1.6460044611       -6.4962997481  CLST      82              1.0000000000
       407        82  DCM       H1             -9.0928263260       -1.0103813212       -5.5861501455  CLST      82              1.0000000000
       408        82  DCM       H2             -9.7664892092       -2.5223598585       -6.3646180340  CLST      82              1.0000000000
       409        82  DCM       CL1            -9.6784131744       -0.6753891895       -7.8798064958  CLST      82              1.0000000000
       410        82  DCM       CL2            -7.4377657285       -2.2209759869       -6.8146148586  CLST      82              1.0000000000
       411        83  DCM       C              -8.1204695455        9.1600057005        7.6020824008  CLST      83              1.0000000000
       412        83  DCM       H1             -7.9380066789        9.0202156563        8.6883322660  CLST      83              1.0000000000
       413        83  DCM       H2             -9.1113679513        9.6274179770        7.4222402226  CLST      83              1.0000000000
       414        83  DCM       CL1            -6.8443599716       10.2170340147        6.9339165154  CLST      83              1.0000000000
       415        83  DCM       CL2            -8.0725878969        7.5652327526        6.7971496925  CLST      83              1.0000000000
       416        84  DCM       C               4.0310295168       -6.4031124212        9.7233041097  CLST      84              1.0000000000
       417        84  DCM       H1              3.9283641495       -7.0747146098       10.6008746572  CLST      84              1.0000000000
       418        84  DCM       H2              3.0889186126       -6.3683250047        9.1369238520  CLST      84              1.0000000000
       419        84  DCM       CL1             4.4190909109       -4.7543897338       10.2945369825  CLST      84              1.0000000000
       420        84  DCM       CL2             5.3432043196       -7.0095054692        8.6718493082  CLST      84              1.0000000000
       421        85  DCM       C              -4.1983890216        0.5707427446       -4.4564653271  CLST      85              1.0000000000
       422        85  DCM       H1             -4.7776292857        1.4637007431       -4.1367035981  CLST      85              1.0000000000
       423        85  DCM       H2             -4.8266461460       -0.1119096897       -5.0661822541  CLST      85              1.0000000000
       424        85  DCM       CL1            -2.7991632435        1.1079992007       -5.4296147385  CLST      85              1.0000000000
       425        85  DCM       CL2            -3.6270103820       -0.2997253905       -3.0030912243  CLST      85              1.0000000000
       426        86  DCM       C              -0.1019841871        1.1202517807        0.1157666577  CLST      86              1.0000000000
       427        86  DCM       H1             -0.0971200655        0.4618064833        1.0094677549  CLST      86              1.0000000000
       428        86  DCM       H2             -0.9051757615        1.8833546816        0.1879454516  CLST      86              1.0000000000
       429        86  DCM       CL1             1.4797957871        1.9387136988       -0.0004202563  CLST      86              1.0000000000
       430        86  DCM       CL2            -0.3761283405        0.1231532734       -1.3400212816  CLST      86              1.0000000000
       431        87  DCM       C              -4.6630296975        7.0217706383        5.3444204465  CLST      87              1.0000000000
       432        87  DCM       H1             -5.4376530356        7.8159719433        5.2878168243  CLST      87              1.0000000000
       433        87  DCM       H2             -4.1104290017        7.0741333905        6.3059487229  CLST      87              1.0000000000
       434        87  DCM       CL1            -5.4493279658        5.4221780979        5.2124194511  CLST      87              1.0000000000
       435        87  DCM       CL2            -3.5078692541        7.2424934509        3.9985420409  CLST      87              1.0000000000
       436        88  DCM       C               5.0156110256       -3.0244303015        6.9966435163  CLST      88              1.0000000000
       437        88  DCM       H1              5.0487854122       -2.3339183164        6.1264625949  CLST      88              1.0000000000
       438        88  DCM       H2              4.7609686884       -2.4790856683        7.9292898544  CLST      88              1.0000000000
       439        88  DCM       CL1             3.7780046795       -4.2795031686        6.6988637358  CLST      88              1.0000000000
       440        88  DCM       CL2             6.6188241601       -3.7881708762        7.1889161984  CLST      88              1.0000000000
       441        89  DCM       C               5.4138354811        7.9624084573       -0.5942052922  CLST      89              1.0000000000
       442        89  DCM       H1              5.7683673364        7.1186078259       -1.2247058159  CLST      89              1.0000000000
       443        89  DCM       H2              5.4147319349        8.9130802792       -1.1676783814  CLST      89              1.0000000000
       444        89  DCM       CL1             3.7516338558        7.6207849999       -0.0357170904  CLST      89              1.0000000000
       445        89  DCM       CL2             6.4933735371        8.1352317003        0.8184424529  CLST      89              1.0000000000
       446        90  DCM       C              -3.6839958995       11.1731904977       11.0243590004  CLST      90              1.0000000000
       447        90  DCM       H1             -3.8990919461       11.9354139766       11.8027546214  CLST      90              1.0000000000
       448        90  DCM       H2             -4.0768959706       10.1784697483       11.3206848865  CLST      90              1.0000000000
       449        90  DCM       CL1            -1.9151410009       11.0559707392       10.7968341200  CLST      90              1.0000000000
       450        90  DCM       CL2            -4.4614355405       11.6696835475        9.4940203076  CLST      90              1.0000000000
       451        91  DCM       C               6.8932669467       -6.8440255564        5.3914911343  CLST      91              1.0000000000
       452        91  DCM       H1              5.8557965749       -6.4790818663        5.5403080726  CLST      91              1.0000000000
       453        91  DCM       H2              7.5052235620       -6.6834726475        6.3053097185  CLST      91              1.0000000000
       454        91  DCM       CL1             6.8446713069       -8.5913858175        5.0212657840  CLST      91              1.0000000000
       455        91  DCM       CL2             7.6396212369       -5.9530530931        4.0327972654  CLST      91              1.0000000000
       456        92  DCM       C              -7.7533916593       -5.1408617747       -4.2062203539  CLST      92              1.0000000000
       457        92  DCM       H1             -8.4437386843       -5.4425176229       -3.3927385115  CLST      92              1.0000000000
       458        92  DCM       H2             -8.1301931409       -4.2415499717       -4.7388157317  CLST      92              1.0000000000
       459        92  DCM       CL1            -7.5987559048       -6.4852258477       -5.3713997671  CLST      92              1.0000000000
       460        92  DCM       CL2            -6.1554068018       -4.7674532923       -3.5073807746  CLST      92              1.0000000000
       461        93  DCM       C               6.9005358211        3.4194838398       -4.6042871347  CLST      93              1.0000000000
       462        93  DCM       H1              7.2040802950        3.6839627821       -5.6384889188  CLST      93              1.0000000000
       463        93  DCM       H2              7.5737865168        2.6476084332       -4.1730900487  CLST      93              1.0000000000
       464        93  DCM       CL1             6.9716587588        4.8873760389       -3.5888858169  CLST      93              1.0000000000
       465        93  DCM       CL2             5.2326625965        2.7807315799       -4.6416696770  CLST      93              1.0000000000
       466        94  DCM       C               7.1248994816        3.9701143485       11.2999553501  CLST      94              1.0000000000
       467        94  DCM       H1              7.3493722435        3.7405118674       10.2382011583  CLST      94              1.0000000000
       468        94  DCM       H2              6.3082705525        3.3222797459       11.6846780728  CLST      94              1.0000000000
       469        94  DCM       CL1             8.5960299499        3.6971247058       12.2787598272  CLST      94              1.0000000000
       470        94  DCM       CL2             6.6236251400        5.6809699755       11.4311687602  CLST      94              1.0000000000
       471        95  DCM       C             -13.1245687747       -4.9858309143       12.2516956639  CLST      95              1.0000000000
       472        95  DCM       H1            -13.9837245506       -4.4986720630       12.7592515656  CLST      95              1.0000000000
       473        95  DCM       H2            -12.2347601645       -5.0195746464       12.9155791903  CLST      95              1.0000000000
       474        95  DCM       CL1           -13.5816063422       -6.6564111140       11.8078434593  CLST      95              1.0000000000
       475        95  DCM       CL2           -12.7168883851       -4.0578885127       10.7789510410  CLST      95              1.0000000000
       476        96  DCM       C              -9.2037067719       -2.5378874705       11.4419102533  CLST      96              1.0000000000
       477        96  DCM       H1             -9.1916271270       -1.4285817455       11.4044845712  CLST      96              1.0000000000
       478        96  DCM       H2             -9.8640151077       -2.9576717270       10.6540897411  CLST      96              1.0000000000
       479        96  DCM       CL1            -7.5415212222       -3.1454758607       11.1896293719  CLST      96              1.0000000000
       480        96  DCM       CL2            -9.8035807386       -3.0594141025       13.0435982559  CLST      96              1.0000000000
       481        97  DCM       C              -9.0985425031       -8.7121079660       -2.8666142060  CLST      97              1.0000000000
       482        97  DCM       H1             -8.3362142914       -7.9195340406       -2.7150311528  CLST      97              1.0000000000
       483        97  DCM       H2             -8.6947100581       -9.5377879992       -3.4887957329  CLST      97              1.0000000000
       484        97  DCM       CL1            -9.5829680687       -9.3642342136       -1.2734295583  CLST      97              1.0000000000
       485        97  DCM       CL2           -10.5172270510       -8.0009359956       -3.6894328110  CLST      97              1.0000000000
       486        98  DCM       C              -9.2236399040       -6.0125889326        0.3960961761  CLST      98              1.0000000000
       487        98  DCM       H1             -9.6339783584       -6.9293011272        0.8721960927  CLST      98              1.0000000000
       488        98  DCM       H2             -9.1581729735       -5.1765694223        1.1225361967  CLST      98              1.0000000000
       489        98  DCM       CL1            -7.5905561141       -6.3727503724       -0.2317154579  CLST      98              1.0000000000
       490        98  DCM       CL2           -10.2964828373       -5.5315844782       -0.9494623386  CLST      98              1.0000000000
