* CHARMM CGENFF SD/ABNR BEFORE MLPOT (MM ONLY)
*  DATE:     6/28/26      1:58:27      CREATED BY USER: boittier
*
       475  EXT
         1         1  DCM       C             -10.2390056761        5.7333992843        8.2424191797  CLST      1               1.0000000000
         2         1  DCM       H1            -10.8981803082        6.0042804581        9.0934277569  CLST      1               1.0000000000
         3         1  DCM       H2            -10.8114299495        5.6933145297        7.2916660472  CLST      1               1.0000000000
         4         1  DCM       CL1            -8.9530127614        6.9634873353        8.0940622645  CLST      1               1.0000000000
         5         1  DCM       CL2            -9.5085543551        4.1311846857        8.5527219717  CLST      1               1.0000000000
         6         2  DCM       C               7.1545718336       -3.9001966836      -10.2569875126  CLST      2               1.0000000000
         7         2  DCM       H1              7.8067150828       -3.0012037909      -10.2652582051  CLST      2               1.0000000000
         8         2  DCM       H2              7.1961767216       -4.4321339693      -11.2311315455  CLST      2               1.0000000000
         9         2  DCM       CL1             5.4684386964       -3.4000683343       -9.9393818653  CLST      2               1.0000000000
        10         2  DCM       CL2             7.7061727367       -5.0051784749       -8.9664181939  CLST      2               1.0000000000
        11         3  DCM       C              -7.7436524118        9.6859553937        5.7368464872  CLST      3               1.0000000000
        12         3  DCM       H1             -8.5819658774       10.3679434677        5.4812494834  CLST      3               1.0000000000
        13         3  DCM       H2             -7.7661209112        9.4113926423        6.8118604325  CLST      3               1.0000000000
        14         3  DCM       CL1            -7.8850628441        8.1980504362        4.7588384917  CLST      3               1.0000000000
        15         3  DCM       CL2            -6.1954531216       10.5033766603        5.3795931177  CLST      3               1.0000000000
        16         4  DCM       C               4.1685371221       -1.5281194596        8.8378401015  CLST      4               1.0000000000
        17         4  DCM       H1              4.2455761057       -1.5567750963        9.9456002645  CLST      4               1.0000000000
        18         4  DCM       H2              5.1594436515       -1.6873419981        8.3636654634  CLST      4               1.0000000000
        19         4  DCM       CL1             3.0562701459       -2.8167487892        8.2965292532  CLST      4               1.0000000000
        20         4  DCM       CL2             3.5457426553        0.0675548924        8.3338421256  CLST      4               1.0000000000
        21         5  DCM       C              -1.6601837190        4.4444002238        9.7050709608  CLST      5               1.0000000000
        22         5  DCM       H1             -2.1756525127        3.8140452097        8.9500981182  CLST      5               1.0000000000
        23         5  DCM       H2             -2.0702437805        5.4768234472        9.7074581684  CLST      5               1.0000000000
        24         5  DCM       CL1             0.0847020819        4.5086110353        9.3169231784  CLST      5               1.0000000000
        25         5  DCM       CL2            -1.8992870993        3.7179789286       11.3198092263  CLST      5               1.0000000000
        26         6  DCM       C              -9.4470037606        4.8935197176       -8.9168401415  CLST      6               1.0000000000
        27         6  DCM       H1             -9.1524498668        4.1596657205       -8.1374005014  CLST      6               1.0000000000
        28         6  DCM       H2             -9.7898264093        4.3798408689       -9.8396824824  CLST      6               1.0000000000
        29         6  DCM       CL1            -8.0371545919        5.9178034030       -9.3108095077  CLST      6               1.0000000000
        30         6  DCM       CL2           -10.7772134889        5.9072035060       -8.2863945972  CLST      6               1.0000000000
        31         7  DCM       C              -9.8546485683       -9.4500603628        6.6942310694  CLST      7               1.0000000000
        32         7  DCM       H1             -8.8377117648       -9.0325190569        6.5409624596  CLST      7               1.0000000000
        33         7  DCM       H2            -10.2507939770       -9.8877912489        5.7535408081  CLST      7               1.0000000000
        34         7  DCM       CL1            -9.7787283787      -10.7241916058        7.9459245292  CLST      7               1.0000000000
        35         7  DCM       CL2           -10.9433015356       -8.1387284584        7.2320669118  CLST      7               1.0000000000
        36         8  DCM       C               5.3101241474       -6.4797956348        6.4980676433  CLST      8               1.0000000000
        37         8  DCM       H1              4.7040054145       -5.7255625957        5.9530634552  CLST      8               1.0000000000
        38         8  DCM       H2              5.3064130954       -6.2783036754        7.5899545178  CLST      8               1.0000000000
        39         8  DCM       CL1             4.6194333404       -8.1002265764        6.2007090836  CLST      8               1.0000000000
        40         8  DCM       CL2             6.9925018984       -6.4196595121        5.8966096015  CLST      8               1.0000000000
        41         9  DCM       C              -5.9198420470        1.7563836470       -7.5805778867  CLST      9               1.0000000000
        42         9  DCM       H1             -6.2647717536        0.7024000655       -7.6329384986  CLST      9               1.0000000000
        43         9  DCM       H2             -5.8863476496        2.2139470304       -8.5915852036  CLST      9               1.0000000000
        44         9  DCM       CL1            -7.0483167059        2.6865055994       -6.5572032168  CLST      9               1.0000000000
        45         9  DCM       CL2            -4.2842097986        1.7996387672       -6.8664236524  CLST      9               1.0000000000
        46        10  DCM       C              -9.2923086045       -0.2750409740       -8.7450033793  CLST      10              1.0000000000
        47        10  DCM       H1            -10.3252453817       -0.5700572397       -9.0263256329  CLST      10              1.0000000000
        48        10  DCM       H2             -8.5488157291       -1.0036264595       -9.1316588498  CLST      10              1.0000000000
        49        10  DCM       CL1            -8.9405683225        1.3352302167       -9.4368641017  CLST      10              1.0000000000
        50        10  DCM       CL2            -9.1747413849       -0.2107431145       -6.9623123483  CLST      10              1.0000000000
        51        11  DCM       C              -8.5764747685       -5.1469079855        7.0583249068  CLST      11              1.0000000000
        52        11  DCM       H1             -8.5683990342       -5.7512783378        7.9889111888  CLST      11              1.0000000000
        53        11  DCM       H2             -7.8312546798       -4.3257394629        7.1079387843  CLST      11              1.0000000000
        54        11  DCM       CL1            -8.1830640254       -6.2095762934        5.6780901785  CLST      11              1.0000000000
        55        11  DCM       CL2           -10.2021735000       -4.4405800027        6.8346245344  CLST      11              1.0000000000
        56        12  DCM       C              -4.0840077955        8.4302069468        7.7706731442  CLST      12              1.0000000000
        57        12  DCM       H1             -4.4641291460        9.4670145714        7.6554845537  CLST      12              1.0000000000
        58        12  DCM       H2             -3.2787264102        8.2186357315        7.0369189923  CLST      12              1.0000000000
        59        12  DCM       CL1            -3.4321580093        8.2265630923        9.4213282508  CLST      12              1.0000000000
        60        12  DCM       CL2            -5.4273185516        7.2822489688        7.5073209024  CLST      12              1.0000000000
        61        13  DCM       C               0.0180526243        0.8913058200        9.4396461962  CLST      13              1.0000000000
        62        13  DCM       H1              0.8056664309        1.2651276527        8.7528760477  CLST      13              1.0000000000
        63        13  DCM       H2             -0.1053871704        1.5693134866       10.3103976059  CLST      13              1.0000000000
        64        13  DCM       CL1            -1.5297057545        0.7930936520        8.5535423461  CLST      13              1.0000000000
        65        13  DCM       CL2             0.4770497393       -0.7293893009       10.0327481280  CLST      13              1.0000000000
        66        14  DCM       C               3.7360778030       -4.3637193288        2.6306464286  CLST      14              1.0000000000
        67        14  DCM       H1              4.2542714538       -3.3919871614        2.4857270481  CLST      14              1.0000000000
        68        14  DCM       H2              3.0668198918       -4.3303188727        3.5147728451  CLST      14              1.0000000000
        69        14  DCM       CL1             2.7637473786       -4.7341094293        1.1768617346  CLST      14              1.0000000000
        70        14  DCM       CL2             4.9573314066       -5.6413674062        2.8864667255  CLST      14              1.0000000000
        71        15  DCM       C               4.3726814326      -11.0291628437       -6.3793037388  CLST      15              1.0000000000
        72        15  DCM       H1              3.6623569442      -11.8821305825       -6.4133855461  CLST      15              1.0000000000
        73        15  DCM       H2              4.4461789831      -10.5307432703       -7.3692000357  CLST      15              1.0000000000
        74        15  DCM       CL1             3.8007614828       -9.8425493340       -5.1702400012  CLST      15              1.0000000000
        75        15  DCM       CL2             5.9877737994      -11.6368299119       -5.9135973193  CLST      15              1.0000000000
        76        16  DCM       C              11.1069314518       -4.3631054251       -7.7012881678  CLST      16              1.0000000000
        77        16  DCM       H1             10.8709998149       -3.9032201175       -6.7184429876  CLST      16              1.0000000000
        78        16  DCM       H2             10.4043345681       -5.1903543471       -7.9328334661  CLST      16              1.0000000000
        79        16  DCM       CL1            10.9764155208       -3.1159701817       -8.9748923008  CLST      16              1.0000000000
        80        16  DCM       CL2            12.7684465500       -5.0194543990       -7.6575467989  CLST      16              1.0000000000
        81        17  DCM       C              -6.4276200172        3.8762411118       -2.8711543689  CLST      17              1.0000000000
        82        17  DCM       H1             -7.1608983202        4.5031023008       -3.4172687355  CLST      17              1.0000000000
        83        17  DCM       H2             -6.8438012604        2.8660731873       -2.6759182940  CLST      17              1.0000000000
        84        17  DCM       CL1            -4.9396488335        3.7212593311       -3.8460696077  CLST      17              1.0000000000
        85        17  DCM       CL2            -6.0415443533        4.6657446922       -1.3179412150  CLST      17              1.0000000000
        86        18  DCM       C             -10.3586397959        9.3922783860       -9.6462890135  CLST      18              1.0000000000
        87        18  DCM       H1            -10.7720066242       10.3880608168       -9.9120230293  CLST      18              1.0000000000
        88        18  DCM       H2            -10.9384885694        8.9269715979       -8.8214483129  CLST      18              1.0000000000
        89        18  DCM       CL1            -8.6589917963        9.5886540284       -9.1274477989  CLST      18              1.0000000000
        90        18  DCM       CL2           -10.4347971112        8.3283906831      -11.0809852075  CLST      18              1.0000000000
        91        19  DCM       C              -8.6780415189        2.5103028087        1.1375608688  CLST      19              1.0000000000
        92        19  DCM       H1             -8.3131958571        2.2412326522        0.1237207982  CLST      19              1.0000000000
        93        19  DCM       H2             -9.7640709028        2.7416218864        1.1220751582  CLST      19              1.0000000000
        94        19  DCM       CL1            -8.3895648706        1.1409545012        2.2483951872  CLST      19              1.0000000000
        95        19  DCM       CL2            -7.7900504355        3.9505351701        1.7091004059  CLST      19              1.0000000000
        96        20  DCM       C               8.4225102099       -3.6518048194        3.7912814320  CLST      20              1.0000000000
        97        20  DCM       H1              9.2722042140       -4.1343709640        3.2631643691  CLST      20              1.0000000000
        98        20  DCM       H2              7.5634082142       -4.3459949294        3.8826842061  CLST      20              1.0000000000
        99        20  DCM       CL1             8.9561586712       -3.1611096168        5.4258469439  CLST      20              1.0000000000
       100        20  DCM       CL2             7.9048483047       -2.2130350892        2.8666311881  CLST      20              1.0000000000
       101        21  DCM       C             -11.2440913743        3.4978596685       -5.2046052469  CLST      21              1.0000000000
       102        21  DCM       H1            -11.0659962320        4.5728497650       -5.4190149449  CLST      21              1.0000000000
       103        21  DCM       H2            -12.1694395713        3.3586208856       -4.6066682990  CLST      21              1.0000000000
       104        21  DCM       CL1           -11.4127483905        2.6173822625       -6.7504294336  CLST      21              1.0000000000
       105        21  DCM       CL2            -9.8567677629        2.8464167355       -4.2847956991  CLST      21              1.0000000000
       106        22  DCM       C              -1.6347794217       -3.1094475077        7.5693460626  CLST      22              1.0000000000
       107        22  DCM       H1             -1.4507885267       -2.0150718284        7.5593945228  CLST      22              1.0000000000
       108        22  DCM       H2             -2.6534159993       -3.3379022341        7.9445844717  CLST      22              1.0000000000
       109        22  DCM       CL1            -1.4623179932       -3.7437811126        5.9083115213  CLST      22              1.0000000000
       110        22  DCM       CL2            -0.4334047780       -3.8927770361        8.6319640492  CLST      22              1.0000000000
       111        23  DCM       C              -1.3525393817       -1.4240266509       -6.5396314603  CLST      23              1.0000000000
       112        23  DCM       H1             -0.8683502148       -2.3004260489       -7.0190213744  CLST      23              1.0000000000
       113        23  DCM       H2             -0.9397395050       -1.2476494174       -5.5220858500  CLST      23              1.0000000000
       114        23  DCM       CL1            -1.0621491443        0.0287344692       -7.5375725168  CLST      23              1.0000000000
       115        23  DCM       CL2            -3.1072961545       -1.7261355670       -6.4049543412  CLST      23              1.0000000000
       116        24  DCM       C             -10.5601809084        5.9991021549       -2.3203780170  CLST      24              1.0000000000
       117        24  DCM       H1            -10.4709701849        7.0298087382       -1.9206074835  CLST      24              1.0000000000
       118        24  DCM       H2            -10.1944083289        5.9434962846       -3.3659327285  CLST      24              1.0000000000
       119        24  DCM       CL1            -9.5823838103        4.9024726374       -1.3089835986  CLST      24              1.0000000000
       120        24  DCM       CL2           -12.2744310206        5.4974754640       -2.2738442621  CLST      24              1.0000000000
       121        25  DCM       C              -6.2271977921        4.6844336632        9.9743337118  CLST      25              1.0000000000
       122        25  DCM       H1             -6.8752999558        5.4260076135        9.4632204545  CLST      25              1.0000000000
       123        25  DCM       H2             -6.8356764787        3.9315079788       10.5183361921  CLST      25              1.0000000000
       124        25  DCM       CL1            -5.2261667297        3.8516612617        8.7524440689  CLST      25              1.0000000000
       125        25  DCM       CL2            -5.1779935354        5.5407190495       11.1392932534  CLST      25              1.0000000000
       126        26  DCM       C              -0.0469368043        6.8821399011        3.8646486231  CLST      26              1.0000000000
       127        26  DCM       H1             -0.6088794253        7.3453618093        4.7026815260  CLST      26              1.0000000000
       128        26  DCM       H2              0.6657316446        6.1186180270        4.2373776154  CLST      26              1.0000000000
       129        26  DCM       CL1             0.8628982153        8.1517175706        2.9961306335  CLST      26              1.0000000000
       130        26  DCM       CL2            -1.1947851712        6.0918809678        2.7481166225  CLST      26              1.0000000000
       131        27  DCM       C               8.1032438320       10.0099056148        5.9151510027  CLST      27              1.0000000000
       132        27  DCM       H1              7.3402496580        9.3192033765        6.3310879685  CLST      27              1.0000000000
       133        27  DCM       H2              8.3574957050       10.8093837475        6.6426593889  CLST      27              1.0000000000
       134        27  DCM       CL1             9.5788138060        9.0761976615        5.5348617998  CLST      27              1.0000000000
       135        27  DCM       CL2             7.4597330798       10.7632524871        4.4270551286  CLST      27              1.0000000000
       136        28  DCM       C             -11.4982130826        6.6704195496        1.4485239680  CLST      28              1.0000000000
       137        28  DCM       H1            -12.1436773211        7.2282588228        2.1591915588  CLST      28              1.0000000000
       138        28  DCM       H2            -11.6951866380        6.9815548739        0.4010460341  CLST      28              1.0000000000
       139        28  DCM       CL1            -9.7865084577        6.9978075481        1.8396614467  CLST      28              1.0000000000
       140        28  DCM       CL2           -11.8287992727        4.9212680522        1.6113605496  CLST      28              1.0000000000
       141        29  DCM       C              -4.4152635495        2.9526450543        2.4221439278  CLST      29              1.0000000000
       142        29  DCM       H1             -4.9041824376        2.9073673867        3.4160201598  CLST      29              1.0000000000
       143        29  DCM       H2             -4.9930251195        2.3721748969        1.6750430609  CLST      29              1.0000000000
       144        29  DCM       CL1            -4.3325241504        4.6522940241        1.8847493294  CLST      29              1.0000000000
       145        29  DCM       CL2            -2.7640378134        2.2782360025        2.5511258575  CLST      29              1.0000000000
       146        30  DCM       C              -6.0677097354       -3.0708445583        0.5149911736  CLST      30              1.0000000000
       147        30  DCM       H1             -6.0440028801       -3.1468627175        1.6218975330  CLST      30              1.0000000000
       148        30  DCM       H2             -6.2864876781       -4.0551617105        0.0533616424  CLST      30              1.0000000000
       149        30  DCM       CL1            -7.3419609676       -1.9114682391        0.0408184470  CLST      30              1.0000000000
       150        30  DCM       CL2            -4.4773089571       -2.5020143620       -0.0641904973  CLST      30              1.0000000000
       151        31  DCM       C              -8.8521982982       -3.0782638967        3.3707271953  CLST      31              1.0000000000
       152        31  DCM       H1             -8.9582750534       -2.2252146766        2.6674325189  CLST      31              1.0000000000
       153        31  DCM       H2             -9.7338154880       -3.1572314585        4.0412930232  CLST      31              1.0000000000
       154        31  DCM       CL1            -8.7000540521       -4.5935340495        2.4341773638  CLST      31              1.0000000000
       155        31  DCM       CL2            -7.3884154768       -2.8319639248        4.3652634064  CLST      31              1.0000000000
       156        32  DCM       C               7.3904514461       -9.1113041177        8.5054874631  CLST      32              1.0000000000
       157        32  DCM       H1              7.8772864490       -8.8694110644        7.5377959359  CLST      32              1.0000000000
       158        32  DCM       H2              6.3599123688       -9.4971416106        8.3477445685  CLST      32              1.0000000000
       159        32  DCM       CL1             8.3550131807      -10.3588803529        9.3470781116  CLST      32              1.0000000000
       160        32  DCM       CL2             7.3092348651       -7.6299742333        9.5032911596  CLST      32              1.0000000000
       161        33  DCM       C              -7.0081895725       -3.0737022578       -6.1143261893  CLST      33              1.0000000000
       162        33  DCM       H1             -7.5025792463       -2.2630037481       -5.5406500803  CLST      33              1.0000000000
       163        33  DCM       H2             -6.1803495287       -3.5257493416       -5.5303197205  CLST      33              1.0000000000
       164        33  DCM       CL1            -8.2173258685       -4.3342152235       -6.4878815787  CLST      33              1.0000000000
       165        33  DCM       CL2            -6.3416538537       -2.4020741521       -7.6295512338  CLST      33              1.0000000000
       166        34  DCM       C              11.1850506477       11.0728312773       -5.0342182134  CLST      34              1.0000000000
       167        34  DCM       H1             11.6805851898       11.0417312364       -6.0279196618  CLST      34              1.0000000000
       168        34  DCM       H2             11.8777103393       10.7433679186       -4.2311453764  CLST      34              1.0000000000
       169        34  DCM       CL1            10.6570628133       12.7470470379       -4.6964078477  CLST      34              1.0000000000
       170        34  DCM       CL2             9.7675617335        9.9859633907       -5.0597598784  CLST      34              1.0000000000
       171        35  DCM       C              12.0439641800       10.2707518510        2.8697756956  CLST      35              1.0000000000
       172        35  DCM       H1             12.6924432521       11.0252923871        3.3629587696  CLST      35              1.0000000000
       173        35  DCM       H2             11.8328935035        9.4188016737        3.5498281857  CLST      35              1.0000000000
       174        35  DCM       CL1            10.4999194714       11.0444392018        2.4091803783  CLST      35              1.0000000000
       175        35  DCM       CL2            12.8730439477        9.6548482403        1.4108118676  CLST      35              1.0000000000
       176        36  DCM       C              -1.0733279674       -7.5923796668        9.1884897832  CLST      36              1.0000000000
       177        36  DCM       H1             -0.3648031161       -8.1455080903        9.8412184172  CLST      36              1.0000000000
       178        36  DCM       H2             -0.5328669338       -6.8943434926        8.5146686792  CLST      36              1.0000000000
       179        36  DCM       CL1            -1.9864070700       -8.7669680372        8.1974549924  CLST      36              1.0000000000
       180        36  DCM       CL2            -2.2025102342       -6.6628123064       10.2155038191  CLST      36              1.0000000000
       181        37  DCM       C               7.2114184889       11.7020157932       -3.0762665662  CLST      37              1.0000000000
       182        37  DCM       H1              7.8980057459       12.0577905534       -3.8720042781  CLST      37              1.0000000000
       183        37  DCM       H2              7.7784541031       11.3878453120       -2.1758078290  CLST      37              1.0000000000
       184        37  DCM       CL1             6.1004665071       13.0286487375       -2.6319289528  CLST      37              1.0000000000
       185        37  DCM       CL2             6.2747909347       10.3087381070       -3.6903775499  CLST      37              1.0000000000
       186        38  DCM       C               7.0162750250       -8.9350043078       -3.6413385875  CLST      38              1.0000000000
       187        38  DCM       H1              6.2458644084       -9.6166375015       -3.2218153619  CLST      38              1.0000000000
       188        38  DCM       H2              6.6795948337       -8.4998847714       -4.6054943020  CLST      38              1.0000000000
       189        38  DCM       CL1             7.3207190388       -7.6112557801       -2.4797839384  CLST      38              1.0000000000
       190        38  DCM       CL2             8.5205206415       -9.8607974610       -3.9151223830  CLST      38              1.0000000000
       191        39  DCM       C              -9.1525696748       -9.5047158640       -1.6090524363  CLST      39              1.0000000000
       192        39  DCM       H1             -9.1090049924      -10.5684101561       -1.9248019630  CLST      39              1.0000000000
       193        39  DCM       H2             -8.2828448876       -8.9356985565       -1.9992883557  CLST      39              1.0000000000
       194        39  DCM       CL1           -10.6537987565       -8.7701238524       -2.2428767793  CLST      39              1.0000000000
       195        39  DCM       CL2            -9.1423399705       -9.4233237810        0.1761427898  CLST      39              1.0000000000
       196        40  DCM       C              11.3149413893       -6.2348095264      -11.1862510080  CLST      40              1.0000000000
       197        40  DCM       H1             11.7983948632       -6.8496571178      -11.9745275318  CLST      40              1.0000000000
       198        40  DCM       H2             12.0652223478       -5.6312476036      -10.6328297927  CLST      40              1.0000000000
       199        40  DCM       CL1            10.4778168668       -7.3184845487      -10.0376323717  CLST      40              1.0000000000
       200        40  DCM       CL2            10.1337569635       -5.1332843566      -11.9522487163  CLST      40              1.0000000000
       201        41  DCM       C              -3.5789376654       -5.2863273480       -5.0569853732  CLST      41              1.0000000000
       202        41  DCM       H1             -3.2983939181       -5.8037403798       -4.1176324919  CLST      41              1.0000000000
       203        41  DCM       H2             -3.9276190223       -4.2517951204       -4.8524138965  CLST      41              1.0000000000
       204        41  DCM       CL1            -2.1493367377       -5.2230202700       -6.1265336494  CLST      41              1.0000000000
       205        41  DCM       CL2            -4.8916097874       -6.2044525525       -5.8518429560  CLST      41              1.0000000000
       206        42  DCM       C               1.9803461072        0.4964814968        2.1365289217  CLST      42              1.0000000000
       207        42  DCM       H1              1.8873973039        1.2548468878        1.3302518023  CLST      42              1.0000000000
       208        42  DCM       H2              0.9998899329        0.3130345701        2.6256439881  CLST      42              1.0000000000
       209        42  DCM       CL1             2.5795311597       -1.0343259509        1.4356892636  CLST      42              1.0000000000
       210        42  DCM       CL2             3.1341032080        1.0886878428        3.3634803837  CLST      42              1.0000000000
       211        43  DCM       C              -3.5663938302        8.8741263158        3.3638949129  CLST      43              1.0000000000
       212        43  DCM       H1             -4.3307726070        9.6042820443        3.0237989024  CLST      43              1.0000000000
       213        43  DCM       H2             -2.9367767339        8.5317730087        2.5152914824  CLST      43              1.0000000000
       214        43  DCM       CL1            -2.5243605114        9.6519800295        4.5888215159  CLST      43              1.0000000000
       215        43  DCM       CL2            -4.3925854480        7.4635018329        4.0835570301  CLST      43              1.0000000000
       216        44  DCM       C              -8.2090796574       -4.7306128782       -2.3186328830  CLST      44              1.0000000000
       217        44  DCM       H1             -8.8533593934       -5.0123682951       -3.1780871061  CLST      44              1.0000000000
       218        44  DCM       H2             -8.4997100362       -3.7386620282       -1.9133091646  CLST      44              1.0000000000
       219        44  DCM       CL1            -8.3792846320       -5.9596620483       -1.0337550281  CLST      44              1.0000000000
       220        44  DCM       CL2            -6.5081530239       -4.6665748487       -2.8585763858  CLST      44              1.0000000000
       221        45  DCM       C              -4.1333278258       -6.0385349964        7.1159574404  CLST      45              1.0000000000
       222        45  DCM       H1             -3.0702872295       -6.0414376038        6.7923501158  CLST      45              1.0000000000
       223        45  DCM       H2             -4.2135923323       -6.0265561946        8.2225289647  CLST      45              1.0000000000
       224        45  DCM       CL1            -4.9430535570       -4.5868913957        6.4628532421  CLST      45              1.0000000000
       225        45  DCM       CL2            -4.9264248007       -7.5111347466        6.4930462102  CLST      45              1.0000000000
       226        46  DCM       C              -6.6120125002        6.3284568349       -5.9502893636  CLST      46              1.0000000000
       227        46  DCM       H1             -6.0006179463        6.1986917113       -5.0328249746  CLST      46              1.0000000000
       228        46  DCM       H2             -6.2298260459        5.6940821804       -6.7772193990  CLST      46              1.0000000000
       229        46  DCM       CL1            -8.3000497254        5.8617647655       -5.6025617730  CLST      46              1.0000000000
       230        46  DCM       CL2            -6.5493244161        8.0428298319       -6.4478641101  CLST      46              1.0000000000
       231        47  DCM       C               0.7734466180        9.4033364010        7.8139862426  CLST      47              1.0000000000
       232        47  DCM       H1              1.8141349342        9.1423650329        8.0986892141  CLST      47              1.0000000000
       233        47  DCM       H2              0.3545341568       10.1776844046        8.4901261014  CLST      47              1.0000000000
       234        47  DCM       CL1            -0.2383538362        7.9355340066        7.9144255308  CLST      47              1.0000000000
       235        47  DCM       CL2             0.7668699681       10.0257765573        6.1392135913  CLST      47              1.0000000000
       236        48  DCM       C              -0.4368121484       -3.9160648558       -3.0069710132  CLST      48              1.0000000000
       237        48  DCM       H1              0.0881893832       -3.9171259346       -2.0299597639  CLST      48              1.0000000000
       238        48  DCM       H2             -0.7952413711       -4.9353774996       -3.2684647806  CLST      48              1.0000000000
       239        48  DCM       CL1            -1.8394299386       -2.8117602772       -2.9156896207  CLST      48              1.0000000000
       240        48  DCM       CL2             0.6963598021       -3.3551180961       -4.2690759580  CLST      48              1.0000000000
       241        49  DCM       C               6.7455945360       12.3411502560       -6.7057060396  CLST      49              1.0000000000
       242        49  DCM       H1              7.5242105943       11.5657697939       -6.5449137206  CLST      49              1.0000000000
       243        49  DCM       H2              5.8584673398       12.1557898404       -6.0642346894  CLST      49              1.0000000000
       244        49  DCM       CL1             6.2376112174       12.3120421656       -8.4193682149  CLST      49              1.0000000000
       245        49  DCM       CL2             7.4306830497       13.9418729027       -6.3012903123  CLST      49              1.0000000000
       246        50  DCM       C             -10.9204889886       10.1237417357       -1.9968693539  CLST      50              1.0000000000
       247        50  DCM       H1            -10.4268226426        9.8431713796       -2.9503186368  CLST      50              1.0000000000
       248        50  DCM       H2            -11.1193815135       11.2156729500       -1.9570255380  CLST      50              1.0000000000
       249        50  DCM       CL1           -12.4697273885        9.2428422475       -1.8614449407  CLST      50              1.0000000000
       250        50  DCM       CL2            -9.8512338980        9.6760675196       -0.6375964558  CLST      50              1.0000000000
       251        51  DCM       C              -6.8549336182        8.8321076030       10.8006101892  CLST      51              1.0000000000
       252        51  DCM       H1             -5.8025548074        8.6463501759       11.1016522715  CLST      51              1.0000000000
       253        51  DCM       H2             -7.3213857567        7.9093413791       10.3970473438  CLST      51              1.0000000000
       254        51  DCM       CL1            -7.7758082184        9.3747773716       12.2325554156  CLST      51              1.0000000000
       255        51  DCM       CL2            -6.8883358864       10.0995099107        9.5409249025  CLST      51              1.0000000000
       256        52  DCM       C             -10.1533575373        8.7322129172       -5.7254725452  CLST      52              1.0000000000
       257        52  DCM       H1             -9.3915594304        8.6394222996       -4.9237907013  CLST      52              1.0000000000
       258        52  DCM       H2             -9.7664946977        8.3262435345       -6.6837089414  CLST      52              1.0000000000
       259        52  DCM       CL1           -11.6114176563        7.8151345917       -5.2508950361  CLST      52              1.0000000000
       260        52  DCM       CL2           -10.5650818475       10.4572593162       -5.9422178877  CLST      52              1.0000000000
       261        53  DCM       C              10.0703360143        9.1418079712       -0.8111874338  CLST      53              1.0000000000
       262        53  DCM       H1              9.6484194972        9.2455384610        0.2095644817  CLST      53              1.0000000000
       263        53  DCM       H2             10.9685479150        8.4889176201       -0.8060483530  CLST      53              1.0000000000
       264        53  DCM       CL1            10.5275092295       10.7616724706       -1.4121271079  CLST      53              1.0000000000
       265        53  DCM       CL2             8.8304894923        8.4216734915       -1.8765705560  CLST      53              1.0000000000
       266        54  DCM       C               0.9933099211       -0.8691998035        5.8686057932  CLST      54              1.0000000000
       267        54  DCM       H1              1.7244901171       -0.0362495273        5.8864206801  CLST      54              1.0000000000
       268        54  DCM       H2              0.8018846475       -1.2550361428        6.8925617384  CLST      54              1.0000000000
       269        54  DCM       CL1            -0.5399764822       -0.2827629138        5.1632298080  CLST      54              1.0000000000
       270        54  DCM       CL2             1.6551886546       -2.1886158246        4.8650075874  CLST      54              1.0000000000
       271        55  DCM       C               4.7540451802        4.4204660499        3.0677079103  CLST      55              1.0000000000
       272        55  DCM       H1              5.4712657827        5.2057197030        2.7495152015  CLST      55              1.0000000000
       273        55  DCM       H2              4.8355023089        3.5206070920        2.4234011558  CLST      55              1.0000000000
       274        55  DCM       CL1             3.0936965269        5.0664209362        2.9472190135  CLST      55              1.0000000000
       275        55  DCM       CL2             5.1068790243        3.9614611738        4.7585161458  CLST      55              1.0000000000
       276        56  DCM       C              10.2278868759       -6.8655974506       -5.1652188896  CLST      56              1.0000000000
       277        56  DCM       H1             10.1076515124       -7.4189643429       -4.2104659423  CLST      56              1.0000000000
       278        56  DCM       H2             11.0169509543       -6.0891883299       -5.0755302068  CLST      56              1.0000000000
       279        56  DCM       CL1             8.6761604404       -6.0808987319       -5.5776848451  CLST      56              1.0000000000
       280        56  DCM       CL2            10.6863790273       -8.0178256420       -6.4509646119  CLST      56              1.0000000000
       281        57  DCM       C             -10.6906498904       10.3667841038        9.9138361312  CLST      57              1.0000000000
       282        57  DCM       H1             -9.7663065937       10.7456472945       10.3986968624  CLST      57              1.0000000000
       283        57  DCM       H2            -11.5556670361       11.0278382653       10.1331246237  CLST      57              1.0000000000
       284        57  DCM       CL1           -10.4376427602       10.3065419983        8.1450088587  CLST      57              1.0000000000
       285        57  DCM       CL2           -11.0422397383        8.7270879518       10.5326620462  CLST      57              1.0000000000
       286        58  DCM       C              -0.7508392959       -2.4802994571        0.6988752787  CLST      58              1.0000000000
       287        58  DCM       H1             -1.5668475349       -2.9813448258        0.1409545077  CLST      58              1.0000000000
       288        58  DCM       H2              0.1901550432       -2.4646740260        0.1020086941  CLST      58              1.0000000000
       289        58  DCM       CL1            -1.2346028799       -0.8017406524        1.0611807319  CLST      58              1.0000000000
       290        58  DCM       CL2            -0.4573450127       -3.3614280499        2.2225993539  CLST      58              1.0000000000
       291        59  DCM       C               3.7329728753        5.8993060228        7.6492676276  CLST      59              1.0000000000
       292        59  DCM       H1              3.6673522640        4.8105167273        7.8533832262  CLST      59              1.0000000000
       293        59  DCM       H2              4.7430188610        6.1761623868        7.2793941031  CLST      59              1.0000000000
       294        59  DCM       CL1             3.3920908309        6.7938752675        9.1578806891  CLST      59              1.0000000000
       295        59  DCM       CL2             2.5233703539        6.3279792378        6.4085671968  CLST      59              1.0000000000
       296        60  DCM       C               6.8971665336        1.7435442815        9.1005037564  CLST      60              1.0000000000
       297        60  DCM       H1              6.9889740370        2.0869838895       10.1504293828  CLST      60              1.0000000000
       298        60  DCM       H2              6.3540801490        0.7782468727        9.0387194748  CLST      60              1.0000000000
       299        60  DCM       CL1             8.5335175388        1.5278456579        8.4114241488  CLST      60              1.0000000000
       300        60  DCM       CL2             5.9967422557        2.9694873259        8.1605526964  CLST      60              1.0000000000
       301        61  DCM       C               4.2378481120        9.0820641095        4.9175291981  CLST      61              1.0000000000
       302        61  DCM       H1              4.4928734924        9.9403847651        4.2604886399  CLST      61              1.0000000000
       303        61  DCM       H2              3.1942439877        8.7455906997        4.7433159244  CLST      61              1.0000000000
       304        61  DCM       CL1             5.3494100053        7.7271550518        4.5679242774  CLST      61              1.0000000000
       305        61  DCM       CL2             4.4141381066        9.5815623957        6.6247598017  CLST      61              1.0000000000
       306        62  DCM       C              -6.5238103329       -9.9727317827        2.6802416719  CLST      62              1.0000000000
       307        62  DCM       H1             -6.4928330004       -9.4906323176        1.6807604084  CLST      62              1.0000000000
       308        62  DCM       H2             -6.7744351800      -11.0514182676        2.5966221381  CLST      62              1.0000000000
       309        62  DCM       CL1            -4.9221212358       -9.8043529372        3.4546470415  CLST      62              1.0000000000
       310        62  DCM       CL2            -7.7676071106       -9.1616866359        3.6744447737  CLST      62              1.0000000000
       311        63  DCM       C               0.4750146625        3.2789205436        5.9803128987  CLST      63              1.0000000000
       312        63  DCM       H1             -0.2866136181        2.6601700823        6.4993229843  CLST      63              1.0000000000
       313        63  DCM       H2              0.3653664955        4.3511598013        6.2448666713  CLST      63              1.0000000000
       314        63  DCM       CL1             0.2707730540        3.0954548383        4.2168486407  CLST      63              1.0000000000
       315        63  DCM       CL2             2.1013055514        2.7270745848        6.4654428144  CLST      63              1.0000000000
       316        64  DCM       C               5.1678887535       -1.1277995620        5.1276700676  CLST      64              1.0000000000
       317        64  DCM       H1              4.1994431802       -0.7349278257        5.5001572274  CLST      64              1.0000000000
       318        64  DCM       H2              5.2667281269       -0.9734184634        4.0322959484  CLST      64              1.0000000000
       319        64  DCM       CL1             6.4947127446       -0.2690754453        5.9574639759  CLST      64              1.0000000000
       320        64  DCM       CL2             5.2626423422       -2.8758200058        5.4790930153  CLST      64              1.0000000000
       321        65  DCM       C               9.6157838057       13.6189783826       -9.3477682406  CLST      65              1.0000000000
       322        65  DCM       H1              9.5742979441       14.5334449616       -8.7188486381  CLST      65              1.0000000000
       323        65  DCM       H2              8.6282416732       13.4069140891       -9.8091512555  CLST      65              1.0000000000
       324        65  DCM       CL1            10.8237926665       13.8517474425      -10.6445958486  CLST      65              1.0000000000
       325        65  DCM       CL2            10.0878033293       12.2325624617       -8.3243329656  CLST      65              1.0000000000
       326        66  DCM       C               6.1431898960        0.4177294222        1.2137961508  CLST      66              1.0000000000
       327        66  DCM       H1              6.9757662249        0.0263442946        0.5913714171  CLST      66              1.0000000000
       328        66  DCM       H2              5.5193598679       -0.4100727877        1.6086830916  CLST      66              1.0000000000
       329        66  DCM       CL1             5.1207369640        1.4917979510        0.2147229961  CLST      66              1.0000000000
       330        66  DCM       CL2             6.8268425668        1.3339645211        2.5883160264  CLST      66              1.0000000000
       331        67  DCM       C              -7.4963846941        4.7031801410        5.2653504575  CLST      67              1.0000000000
       332        67  DCM       H1             -6.9250887008        5.1687833943        4.4341898256  CLST      67              1.0000000000
       333        67  DCM       H2             -7.3329487198        5.2498979911        6.2171710030  CLST      67              1.0000000000
       334        67  DCM       CL1            -9.2386599202        4.7421377287        4.8642182978  CLST      67              1.0000000000
       335        67  DCM       CL2            -6.9607655770        3.0100749964        5.4685492116  CLST      67              1.0000000000
       336        68  DCM       C              -5.3226017149       -6.1525659795        3.1744898151  CLST      68              1.0000000000
       337        68  DCM       H1             -5.6148239270       -5.1034368350        3.3909622307  CLST      68              1.0000000000
       338        68  DCM       H2             -5.8724491149       -6.8574485309        3.8306471971  CLST      68              1.0000000000
       339        68  DCM       CL1            -5.7148019250       -6.5304459464        1.4741928214  CLST      68              1.0000000000
       340        68  DCM       CL2            -3.5657064420       -6.3461373454        3.4529818826  CLST      68              1.0000000000
       341        69  DCM       C               5.5510454022       -7.2418119439      -11.1766260208  CLST      69              1.0000000000
       342        69  DCM       H1              5.5826499722       -6.7455578205      -10.1841736453  CLST      69              1.0000000000
       343        69  DCM       H2              5.0553236118       -8.2333300224      -11.1111656701  CLST      69              1.0000000000
       344        69  DCM       CL1             4.6406177597       -6.2049395422      -12.3124022774  CLST      69              1.0000000000
       345        69  DCM       CL2             7.2221061100       -7.4661237339      -11.7696974900  CLST      69              1.0000000000
       346        70  DCM       C              -3.5407860373        6.0037449340       -8.2465222841  CLST      70              1.0000000000
       347        70  DCM       H1             -4.0979260376        6.9617251052       -8.1704202677  CLST      70              1.0000000000
       348        70  DCM       H2             -2.5836462248        6.1395210489       -8.7932759984  CLST      70              1.0000000000
       349        70  DCM       CL1            -3.1886116799        5.4007626207       -6.6007925441  CLST      70              1.0000000000
       350        70  DCM       CL2            -4.5463408757        4.8157489647       -9.1248036390  CLST      70              1.0000000000
       351        71  DCM       C             -10.3066032188       -7.9595931397       10.9235347160  CLST      71              1.0000000000
       352        71  DCM       H1            -10.0054662433       -8.6108289338       10.0767158883  CLST      71              1.0000000000
       353        71  DCM       H2            -11.3685820529       -8.1299265050       11.1986931255  CLST      71              1.0000000000
       354        71  DCM       CL1            -9.2709842320       -8.3288757636       12.3329842985  CLST      71              1.0000000000
       355        71  DCM       CL2           -10.0943981981       -6.2491433995       10.4474760666  CLST      71              1.0000000000
       356        72  DCM       C              -3.9333985895       -0.2411362138      -10.0247869271  CLST      72              1.0000000000
       357        72  DCM       H1             -3.8780276469       -0.4413623595       -8.9343916617  CLST      72              1.0000000000
       358        72  DCM       H2             -3.3601203312       -0.9996144354      -10.5984455530  CLST      72              1.0000000000
       359        72  DCM       CL1            -5.6453439971       -0.2883412586      -10.5387685856  CLST      72              1.0000000000
       360        72  DCM       CL2            -3.2480259482        1.3772818561      -10.3525306040  CLST      72              1.0000000000
       361        73  DCM       C               5.7417009162       10.0170824293       -0.0157734183  CLST      73              1.0000000000
       362        73  DCM       H1              6.1210079133        9.1672954464       -0.6221136967  CLST      73              1.0000000000
       363        73  DCM       H2              5.1546923268       10.7223222403       -0.6415316243  CLST      73              1.0000000000
       364        73  DCM       CL1             4.6937179457        9.3815925588        1.2855544146  CLST      73              1.0000000000
       365        73  DCM       CL2             7.1297641607       10.8892997941        0.6961333865  CLST      73              1.0000000000
       366        74  DCM       C              -2.4158197181       -6.0386801908        0.2026464053  CLST      74              1.0000000000
       367        74  DCM       H1             -2.5670574354       -5.2344848670        0.9508008952  CLST      74              1.0000000000
       368        74  DCM       H2             -2.7655996902       -7.0203721115        0.5924745691  CLST      74              1.0000000000
       369        74  DCM       CL1            -3.3469181952       -5.6372235298       -1.2659675719  CLST      74              1.0000000000
       370        74  DCM       CL2            -0.6766378506       -6.1560206364       -0.1902691842  CLST      74              1.0000000000
       371        75  DCM       C             -10.2116296938        4.6282499396       12.2430626432  CLST      75              1.0000000000
       372        75  DCM       H1            -10.2014171254        4.4445070460       13.3382663529  CLST      75              1.0000000000
       373        75  DCM       H2             -9.9674425387        3.7036872701       11.6785779578  CLST      75              1.0000000000
       374        75  DCM       CL1           -11.8402470673        5.1879233145       11.7637683246  CLST      75              1.0000000000
       375        75  DCM       CL2            -9.0009969883        5.8839348473       11.8540113264  CLST      75              1.0000000000
       376        76  DCM       C              -5.1689608896       -8.4495430198       -2.7384811645  CLST      76              1.0000000000
       377        76  DCM       H1             -5.8332077060       -9.0256234691       -3.4145048036  CLST      76              1.0000000000
       378        76  DCM       H2             -5.4131136801       -7.3673018236       -2.7657056832  CLST      76              1.0000000000
       379        76  DCM       CL1            -5.3784874862       -9.0505632614       -1.0690496310  CLST      76              1.0000000000
       380        76  DCM       CL2            -3.4747618933       -8.6811192560       -3.2594670684  CLST      76              1.0000000000
       381        77  DCM       C              -7.8656941328       -8.8143907160       -5.8208735404  CLST      77              1.0000000000
       382        77  DCM       H1             -6.8565366173       -8.6902386667       -6.2677652247  CLST      77              1.0000000000
       383        77  DCM       H2             -8.6553727502       -8.7860272199       -6.6016578760  CLST      77              1.0000000000
       384        77  DCM       CL1            -7.9408768722      -10.3860839316       -4.9722155569  CLST      77              1.0000000000
       385        77  DCM       CL2            -8.1527397333       -7.4890400764       -4.6585737194  CLST      77              1.0000000000
       386        78  DCM       C              -3.9027305756        0.8824522222       -0.6674698561  CLST      78              1.0000000000
       387        78  DCM       H1             -3.6340354810        0.5056314794        0.3403463255  CLST      78              1.0000000000
       388        78  DCM       H2             -3.5772887849        0.1717048227       -1.4559936301  CLST      78              1.0000000000
       389        78  DCM       CL1            -5.6752359635        1.0738471320       -0.7404318836  CLST      78              1.0000000000
       390        78  DCM       CL2            -3.1087273424        2.4606374512       -0.9351152555  CLST      78              1.0000000000
       391        79  DCM       C              -6.6529738143       -5.4785224468       11.5330207311  CLST      79              1.0000000000
       392        79  DCM       H1             -7.1871959148       -6.4440855357       11.4141442173  CLST      79              1.0000000000
       393        79  DCM       H2             -7.2529986533       -4.7632818554       12.1341848781  CLST      79              1.0000000000
       394        79  DCM       CL1            -5.0980682993       -5.7790157879       12.3606968063  CLST      79              1.0000000000
       395        79  DCM       CL2            -6.3520096335       -4.7759085125        9.9171884023  CLST      79              1.0000000000
       396        80  DCM       C              10.6382372236       -6.0178493244       -1.2616484907  CLST      80              1.0000000000
       397        80  DCM       H1             10.9442743555       -5.5624802576       -0.2961632095  CLST      80              1.0000000000
       398        80  DCM       H2              9.8893083164       -6.8225931906       -1.1021931978  CLST      80              1.0000000000
       399        80  DCM       CL1             9.9208897641       -4.7504122993       -2.2994210276  CLST      80              1.0000000000
       400        80  DCM       CL2            12.0785219163       -6.7137565598       -2.0597488428  CLST      80              1.0000000000
       401        81  DCM       C              -6.3114761610      -11.0155605604        6.7679701570  CLST      81              1.0000000000
       402        81  DCM       H1             -6.7451094307      -11.1293032789        7.7839806682  CLST      81              1.0000000000
       403        81  DCM       H2             -6.5073827002      -10.0021527371        6.3598750224  CLST      81              1.0000000000
       404        81  DCM       CL1            -4.5452283852      -11.2723439885        6.8594541222  CLST      81              1.0000000000
       405        81  DCM       CL2            -7.0493465611      -12.2275577191        5.6813620985  CLST      81              1.0000000000
       406        82  DCM       C               8.3860395568        7.5993431191        2.4749182869  CLST      82              1.0000000000
       407        82  DCM       H1              8.0320450709        7.2333216803        3.4613820595  CLST      82              1.0000000000
       408        82  DCM       H2              8.3025283589        8.7043322534        2.4070299659  CLST      82              1.0000000000
       409        82  DCM       CL1             7.3923252714        6.8591276800        1.1875141909  CLST      82              1.0000000000
       410        82  DCM       CL2            10.0974256929        7.1289059660        2.2657906303  CLST      82              1.0000000000
       411        83  DCM       C              -0.6951882585        1.4004710631       -3.4911250831  CLST      83              1.0000000000
       412        83  DCM       H1             -0.0116303285        1.4190636349       -4.3686375214  CLST      83              1.0000000000
       413        83  DCM       H2             -0.7740747726        2.4040669977       -3.0243036838  CLST      83              1.0000000000
       414        83  DCM       CL1            -2.3195256819        0.8899025715       -4.0325271211  CLST      83              1.0000000000
       415        83  DCM       CL2            -0.0675712707        0.2416023668       -2.2838502218  CLST      83              1.0000000000
       416        84  DCM       C              10.1495762416       10.4044414067      -11.6544485372  CLST      84              1.0000000000
       417        84  DCM       H1             10.4497172875       11.1130766098      -12.4550373186  CLST      84              1.0000000000
       418        84  DCM       H2             10.7328185218       10.5824734820      -10.7265051165  CLST      84              1.0000000000
       419        84  DCM       CL1             8.4114108207       10.6289985142      -11.3015304042  CLST      84              1.0000000000
       420        84  DCM       CL2            10.4444500811        8.7322821417      -12.2133147688  CLST      84              1.0000000000
       421        85  DCM       C              -3.3760148406        4.4315067297        5.5372349725  CLST      85              1.0000000000
       422        85  DCM       H1             -4.4291394312        4.7461711069        5.6923370289  CLST      85              1.0000000000
       423        85  DCM       H2             -3.0821979460        4.5203621104        4.4720077798  CLST      85              1.0000000000
       424        85  DCM       CL1            -2.3086363453        5.4861379538        6.4988267673  CLST      85              1.0000000000
       425        85  DCM       CL2            -3.1874844095        2.7313170347        6.0542533502  CLST      85              1.0000000000
       426        86  DCM       C               7.4111933003       -8.6883720309       -7.8727724457  CLST      86              1.0000000000
       427        86  DCM       H1              8.1267203869       -7.9717671502       -8.3280987998  CLST      86              1.0000000000
       428        86  DCM       H2              7.8466738265       -9.1660500508       -6.9695279863  CLST      86              1.0000000000
       429        86  DCM       CL1             5.9249829300       -7.8101230623       -7.4101792918  CLST      86              1.0000000000
       430        86  DCM       CL2             7.0177643073       -9.9563591184       -9.0686352509  CLST      86              1.0000000000
       431        87  DCM       C               0.8560164808       -6.0905044988        4.6907384718  CLST      87              1.0000000000
       432        87  DCM       H1             -0.1562268386       -6.4754572708        4.9373596067  CLST      87              1.0000000000
       433        87  DCM       H2              0.7917125970       -5.1748367721        4.0663442143  CLST      87              1.0000000000
       434        87  DCM       CL1             1.7169867444       -5.6945975362        6.2058668417  CLST      87              1.0000000000
       435        87  DCM       CL2             1.7545451763       -7.3440420761        3.7896412254  CLST      87              1.0000000000
       436        88  DCM       C              -5.9418445303       -0.0715072439       -4.1719082114  CLST      88              1.0000000000
       437        88  DCM       H1             -5.9333699510       -0.1795807037       -5.2759137297  CLST      88              1.0000000000
       438        88  DCM       H2             -5.4022824294        0.8455865731       -3.8566601317  CLST      88              1.0000000000
       439        88  DCM       CL1            -5.1408674489       -1.4913363279       -3.4453881640  CLST      88              1.0000000000
       440        88  DCM       CL2            -7.6340707604        0.0196302589       -3.6057441341  CLST      88              1.0000000000
       441        89  DCM       C               8.0351424792       -2.5241123241        8.8957703848  CLST      89              1.0000000000
       442        89  DCM       H1              9.0807170336       -2.8695219483        9.0348129496  CLST      89              1.0000000000
       443        89  DCM       H2              7.9532795905       -1.8467081897        8.0187107861  CLST      89              1.0000000000
       444        89  DCM       CL1             6.9840661080       -3.9458776943        8.6334964863  CLST      89              1.0000000000
       445        89  DCM       CL2             7.5088692841       -1.6466982042       10.3614474153  CLST      89              1.0000000000
       446        90  DCM       C              -5.5891960277       -8.6396719268        9.7681751685  CLST      90              1.0000000000
       447        90  DCM       H1             -5.0501039231       -7.6834331480        9.9353068945  CLST      90              1.0000000000
       448        90  DCM       H2             -5.0141767189       -9.3054044391        9.0916869667  CLST      90              1.0000000000
       449        90  DCM       CL1            -5.8135381972       -9.4595836430       11.3387076684  CLST      90              1.0000000000
       450        90  DCM       CL2            -7.1824717296       -8.2899140652        9.0365830227  CLST      90              1.0000000000
       451        91  DCM       C               9.2375133032        7.9061256899       -8.6046059677  CLST      91              1.0000000000
       452        91  DCM       H1              9.0961189032        7.7249103213       -9.6908569508  CLST      91              1.0000000000
       453        91  DCM       H2              9.1855184115        6.9578757259       -8.0296507420  CLST      91              1.0000000000
       454        91  DCM       CL1            10.8391044136        8.6572084161       -8.3425423435  CLST      91              1.0000000000
       455        91  DCM       CL2             7.9487697757        9.0031902740       -8.0299437813  CLST      91              1.0000000000
       456        92  DCM       C               6.3547377544       -4.6676198219       -0.4667904921  CLST      92              1.0000000000
       457        92  DCM       H1              6.7025784544       -4.7216672530       -1.5208176727  CLST      92              1.0000000000
       458        92  DCM       H2              5.4853378305       -5.3381865079       -0.2980352220  CLST      92              1.0000000000
       459        92  DCM       CL1             7.6907393583       -5.1685629076        0.6102606615  CLST      92              1.0000000000
       460        92  DCM       CL2             5.8735693337       -2.9857437299       -0.0992526157  CLST      92              1.0000000000
       461        93  DCM       C              -3.8885201356       -1.0613866265        3.8208158103  CLST      93              1.0000000000
       462        93  DCM       H1             -4.0820827398       -0.9369266306        4.9064057715  CLST      93              1.0000000000
       463        93  DCM       H2             -2.9542847420       -0.5444572538        3.5174666939  CLST      93              1.0000000000
       464        93  DCM       CL1            -5.2540020051       -0.3798444702        2.8966344782  CLST      93              1.0000000000
       465        93  DCM       CL2            -3.7288560676       -2.8000984512        3.4508049096  CLST      93              1.0000000000
       466        94  DCM       C              -6.6320366873        9.3114907474       -2.6433527682  CLST      94              1.0000000000
       467        94  DCM       H1             -5.6100117624        9.1571239047       -3.0496596217  CLST      94              1.0000000000
       468        94  DCM       H2             -6.5951637273        9.6785153692       -1.5963156451  CLST      94              1.0000000000
       469        94  DCM       CL1            -7.4859706900       10.5163401698       -3.6500493383  CLST      94              1.0000000000
       470        94  DCM       CL2            -7.5135408501        7.7579515211       -2.6836146926  CLST      94              1.0000000000
       471        95  DCM       C              -6.3807072776        7.6522419854        0.9312388351  CLST      95              1.0000000000
       472        95  DCM       H1             -6.2876407872        6.9994863430        1.8244366339  CLST      95              1.0000000000
       473        95  DCM       H2             -7.1346153544        7.2446576995        0.2248792438  CLST      95              1.0000000000
       474        95  DCM       CL1            -6.8873253839        9.2850797446        1.4518422503  CLST      95              1.0000000000
       475        95  DCM       CL2            -4.7974992280        7.7534438781        0.1064718532  CLST      95              1.0000000000
