* INITIAL
*  DATE:     6/28/26      2: 0:37      CREATED BY USER: boittier
*
       490  EXT
         1         1  DCM       C               7.1400801079       -3.3884245529        7.4283889324  CLST      1               1.0000000000
         2         1  DCM       H1              8.1840968679       -3.1689866636        7.1251887860  CLST      1               1.0000000000
         3         1  DCM       H2              6.5713950936       -3.8506938268        6.5949487338  CLST      1               1.0000000000
         4         1  DCM       CL1             6.3469781024       -1.8599611009        7.9030928831  CLST      1               1.0000000000
         5         1  DCM       CL2             7.1640183383       -4.5174218767        8.8121999615  CLST      1               1.0000000000
         6         2  DCM       C              -2.8946764008       -7.0492448687       -4.3575877846  CLST      2               1.0000000000
         7         2  DCM       H1             -3.1785601406       -7.6240181073       -3.4525555852  CLST      2               1.0000000000
         8         2  DCM       H2             -1.8489063064       -7.2743958772       -4.6540456103  CLST      2               1.0000000000
         9         2  DCM       CL1            -3.9906899894       -7.4926771824       -5.6972500116  CLST      2               1.0000000000
        10         2  DCM       CL2            -3.0407739923       -5.3032862209       -4.0098954555  CLST      2               1.0000000000
        11         3  DCM       C              -7.4440728151        8.1206352632        1.6616242260  CLST      3               1.0000000000
        12         3  DCM       H1             -7.4591394524        7.4111713970        2.5152493895  CLST      3               1.0000000000
        13         3  DCM       H2             -6.6157184866        8.8522000378        1.7660513207  CLST      3               1.0000000000
        14         3  DCM       CL1            -7.2175149213        7.2025242307        0.1445487082  CLST      3               1.0000000000
        15         3  DCM       CL2            -8.9973158999        9.0039864891        1.6174513596  CLST      3               1.0000000000
        16         4  DCM       C              10.3690745980       -6.5549319082       -2.5361510458  CLST      4               1.0000000000
        17         4  DCM       H1             11.2511276603       -6.7561397503       -1.8920678374  CLST      4               1.0000000000
        18         4  DCM       H2             10.4406231478       -7.1094650992       -3.4959326072  CLST      4               1.0000000000
        19         4  DCM       CL1             8.8907502676       -7.0736160663       -1.6742757086  CLST      4               1.0000000000
        20         4  DCM       CL2            10.2888848257       -4.8026344212       -2.8824175131  CLST      4               1.0000000000
        21         5  DCM       C               5.5070077495       10.7665869686        2.5179130771  CLST      5               1.0000000000
        22         5  DCM       H1              5.6049849826       10.6253771733        3.6149025041  CLST      5               1.0000000000
        23         5  DCM       H2              6.1563084002       10.0567792602        1.9624716656  CLST      5               1.0000000000
        24         5  DCM       CL1             3.8071481764       10.4874224355        2.0449906039  CLST      5               1.0000000000
        25         5  DCM       CL2             5.9832179344       12.4380197552        2.1029002787  CLST      5               1.0000000000
        26         6  DCM       C              -7.4420104876        6.0467819952        7.0261326192  CLST      6               1.0000000000
        27         6  DCM       H1             -6.9898622189        5.0532232072        7.2314986049  CLST      6               1.0000000000
        28         6  DCM       H2             -8.4532939599        6.1283996927        7.4785304670  CLST      6               1.0000000000
        29         6  DCM       CL1            -6.3894556976        7.3183625458        7.7112958555  CLST      6               1.0000000000
        30         6  DCM       CL2            -7.5820575310        6.2671760549        5.2595041911  CLST      6               1.0000000000
        31         7  DCM       C               2.4332855035       13.5496752161        0.5513311228  CLST      7               1.0000000000
        32         7  DCM       H1              3.4527455769       13.5087926588        0.9891230375  CLST      7               1.0000000000
        33         7  DCM       H2              2.2105036500       14.5617212737        0.1519539553  CLST      7               1.0000000000
        34         7  DCM       CL1             2.3278746077       12.3620461522       -0.7813950431  CLST      7               1.0000000000
        35         7  DCM       CL2             1.2395008936       13.1498200482        1.8216454509  CLST      7               1.0000000000
        36         8  DCM       C               8.7959701991       -1.2026249085       -3.5375036836  CLST      8               1.0000000000
        37         8  DCM       H1              7.9143564458       -0.6905737021       -3.0997760599  CLST      8               1.0000000000
        38         8  DCM       H2              9.2993247455       -1.8406526420       -2.7808337042  CLST      8               1.0000000000
        39         8  DCM       CL1             8.2582487732       -2.2264730528       -4.9005927053  CLST      8               1.0000000000
        40         8  DCM       CL2             9.9473638527        0.0341465277       -4.1184636705  CLST      8               1.0000000000
        41         9  DCM       C              -6.1492850301       -0.2157146525       -0.7744049432  CLST      9               1.0000000000
        42         9  DCM       H1             -5.0459693658       -0.1186243579       -0.7011556207  CLST      9               1.0000000000
        43         9  DCM       H2             -6.4398827061       -1.2192528516       -1.1522981465  CLST      9               1.0000000000
        44         9  DCM       CL1            -6.7587639386        1.0317577277       -1.8993352381  CLST      9               1.0000000000
        45         9  DCM       CL2            -6.8544611369        0.0214625013        0.8506560572  CLST      9               1.0000000000
        46        10  DCM       C             -10.0518833101        1.5730039579       -0.2239376156  CLST      10              1.0000000000
        47        10  DCM       H1             -8.9914334894        1.8975616384       -0.1786417623  CLST      10              1.0000000000
        48        10  DCM       H2            -10.6375429939        2.2197307529       -0.9104856644  CLST      10              1.0000000000
        49        10  DCM       CL1           -10.1279425983       -0.1173900713       -0.8032490227  CLST      10              1.0000000000
        50        10  DCM       CL2           -10.7513546837        1.6834923492        1.4137373430  CLST      10              1.0000000000
        51        11  DCM       C              14.5874765632       -2.7932657573        3.0940994241  CLST      11              1.0000000000
        52        11  DCM       H1             15.6408198697       -2.8747387977        3.4363823785  CLST      11              1.0000000000
        53        11  DCM       H2             14.1610878665       -1.8018665149        3.3553857483  CLST      11              1.0000000000
        54        11  DCM       CL1            14.5296029821       -3.0039604752        1.3197481585  CLST      11              1.0000000000
        55        11  DCM       CL2            13.6193680550       -4.0699287819        3.8861198298  CLST      11              1.0000000000
        56        12  DCM       C              -8.2028279043       -3.5673037227        0.6724903931  CLST      12              1.0000000000
        57        12  DCM       H1             -8.2022968216       -2.4953097623        0.3861600406  CLST      12              1.0000000000
        58        12  DCM       H2             -8.3428408620       -3.6894743235        1.7668183095  CLST      12              1.0000000000
        59        12  DCM       CL1            -9.5435323771       -4.3845882558       -0.1776600954  CLST      12              1.0000000000
        60        12  DCM       CL2            -6.6437179173       -4.2995460986        0.2046937119  CLST      12              1.0000000000
        61        13  DCM       C              11.5428283871        0.5267413072        2.4587568235  CLST      13              1.0000000000
        62        13  DCM       H1             11.0263604969        1.0791561882        1.6464377238  CLST      13              1.0000000000
        63        13  DCM       H2             11.1163072993        0.7867754277        3.4507940799  CLST      13              1.0000000000
        64        13  DCM       CL1            11.3491190785       -1.2262185985        2.1837370091  CLST      13              1.0000000000
        65        13  DCM       CL2            13.2784621094        0.9506932763        2.4367730976  CLST      13              1.0000000000
        66        14  DCM       C              13.1444138823       -0.4836734909       -1.1372471386  CLST      14              1.0000000000
        67        14  DCM       H1             13.5790306444       -0.5818249753       -0.1205872164  CLST      14              1.0000000000
        68        14  DCM       H2             13.9263046498       -0.5920176801       -1.9182673152  CLST      14              1.0000000000
        69        14  DCM       CL1            11.9116640185       -1.7570997132       -1.3675722968  CLST      14              1.0000000000
        70        14  DCM       CL2            12.3891604357        1.1289159338       -1.2888653512  CLST      14              1.0000000000
        71        15  DCM       C              -6.6093480636       -5.5646991557      -10.9818042856  CLST      15              1.0000000000
        72        15  DCM       H1             -5.8029843483       -4.8295814163      -10.7742240135  CLST      15              1.0000000000
        73        15  DCM       H2             -6.6364155386       -5.8340514011      -12.0590085723  CLST      15              1.0000000000
        74        15  DCM       CL1            -6.3094937538       -7.0421662784      -10.0200598013  CLST      15              1.0000000000
        75        15  DCM       CL2            -8.1824053898       -4.8492581157      -10.5205262708  CLST      15              1.0000000000
        76        16  DCM       C             -11.2750509739       -0.9130038828        6.1881330997  CLST      16              1.0000000000
        77        16  DCM       H1            -12.2592960477       -1.3086784805        6.5154778037  CLST      16              1.0000000000
        78        16  DCM       H2            -10.6872540709       -1.6961269551        5.6647791954  CLST      16              1.0000000000
        79        16  DCM       CL1           -11.5411888283        0.4550841712        5.0722196429  CLST      16              1.0000000000
        80        16  DCM       CL2           -10.3642462111       -0.3509626031        7.6187553538  CLST      16              1.0000000000
        81        17  DCM       C               5.8520947005        5.0150469010       -5.3664723271  CLST      17              1.0000000000
        82        17  DCM       H1              6.7885443422        5.2966765363       -5.8926957862  CLST      17              1.0000000000
        83        17  DCM       H2              6.0718409109        4.4466589049       -4.4391840357  CLST      17              1.0000000000
        84        17  DCM       CL1             4.9466462538        6.4966082974       -4.9470110008  CLST      17              1.0000000000
        85        17  DCM       CL2             4.8647213097        3.9958376370       -6.4465732024  CLST      17              1.0000000000
        86        18  DCM       C              11.2121866881       -4.6669820146        0.8024708241  CLST      18              1.0000000000
        87        18  DCM       H1             11.7145668293       -4.5260311530       -0.1774448093  CLST      18              1.0000000000
        88        18  DCM       H2             11.7329509924       -4.0984304660        1.6001565315  CLST      18              1.0000000000
        89        18  DCM       CL1             9.5270212614       -4.0865887164        0.6853841246  CLST      18              1.0000000000
        90        18  DCM       CL2            11.2260469037       -6.4033424207        1.2223099256  CLST      18              1.0000000000
        91        19  DCM       C               5.7276127825        8.0396488467       -9.7709898170  CLST      19              1.0000000000
        92        19  DCM       H1              6.5422254150        8.1581802174      -10.5165126419  CLST      19              1.0000000000
        93        19  DCM       H2              4.7713252767        7.7701285121      -10.2669505373  CLST      19              1.0000000000
        94        19  DCM       CL1             6.1728742760        6.7444308700       -8.6227615505  CLST      19              1.0000000000
        95        19  DCM       CL2             5.5112596536        9.5798811680       -8.8901422953  CLST      19              1.0000000000
        96        20  DCM       C             -12.8864411851       -3.0367215489       -9.5299091278  CLST      20              1.0000000000
        97        20  DCM       H1            -13.9858806166       -2.8884887465       -9.4729436811  CLST      20              1.0000000000
        98        20  DCM       H2            -12.5207220272       -3.6434558913       -8.6747575548  CLST      20              1.0000000000
        99        20  DCM       CL1           -12.4895168883       -3.8822265859      -11.0547575054  CLST      20              1.0000000000
       100        20  DCM       CL2           -12.0814909454       -1.4406443711       -9.4962788875  CLST      20              1.0000000000
       101        21  DCM       C               5.8508984280       -5.4902409780        1.5936962641  CLST      21              1.0000000000
       102        21  DCM       H1              6.9498756732       -5.4971829780        1.7516038531  CLST      21              1.0000000000
       103        21  DCM       H2              5.5986095132       -5.7531754218        0.5452440717  CLST      21              1.0000000000
       104        21  DCM       CL1             5.0893359695       -6.6802000108        2.6865253604  CLST      21              1.0000000000
       105        21  DCM       CL2             5.2183747704       -3.8592169092        1.9519665406  CLST      21              1.0000000000
       106        22  DCM       C              -3.0895638661        0.5609800842        4.8334151481  CLST      22              1.0000000000
       107        22  DCM       H1             -3.7259887403        0.2104936658        5.6721194829  CLST      22              1.0000000000
       108        22  DCM       H2             -2.3876412819       -0.2361946024        4.5097880180  CLST      22              1.0000000000
       109        22  DCM       CL1            -4.1340306578        1.0169984921        3.4570201191  CLST      22              1.0000000000
       110        22  DCM       CL2            -2.1549407074        1.9820680550        5.3755184596  CLST      22              1.0000000000
       111        23  DCM       C               7.6024178061        6.2163577431       -2.0769585485  CLST      23              1.0000000000
       112        23  DCM       H1              6.5471637156        5.8705076441       -2.0950576448  CLST      23              1.0000000000
       113        23  DCM       H2              7.6892309150        7.2537933868       -2.4614762596  CLST      23              1.0000000000
       114        23  DCM       CL1             8.1992687447        6.1747201298       -0.3932049974  CLST      23              1.0000000000
       115        23  DCM       CL2             8.5941966153        5.1288466072       -3.0922320494  CLST      23              1.0000000000
       116        24  DCM       C               5.5997898642        1.2562740134       -4.0573565238  CLST      24              1.0000000000
       117        24  DCM       H1              6.2710338125        1.7654832656       -3.3360990694  CLST      24              1.0000000000
       118        24  DCM       H2              4.7188289887        1.8863316010       -4.2974655551  CLST      24              1.0000000000
       119        24  DCM       CL1             6.5091659707        0.9211454474       -5.5581818044  CLST      24              1.0000000000
       120        24  DCM       CL2             5.0300133697       -0.2756292218       -3.3412908476  CLST      24              1.0000000000
       121        25  DCM       C              -1.8870681795       -9.4328190713        2.2756778943  CLST      25              1.0000000000
       122        25  DCM       H1             -2.9778433539       -9.2425498571        2.3671581381  CLST      25              1.0000000000
       123        25  DCM       H2             -1.6399013409       -9.8240070357        1.2664881531  CLST      25              1.0000000000
       124        25  DCM       CL1            -1.0002946533       -7.9050474052        2.5469948707  CLST      25              1.0000000000
       125        25  DCM       CL2            -1.3949142694      -10.6337370474        3.5019180629  CLST      25              1.0000000000
       126        26  DCM       C              -5.1528801343        9.3317435179        4.8922021537  CLST      26              1.0000000000
       127        26  DCM       H1             -4.6665974912        9.8613758728        5.7383706850  CLST      26              1.0000000000
       128        26  DCM       H2             -5.0681546220        8.2311326006        5.0152569673  CLST      26              1.0000000000
       129        26  DCM       CL1            -4.3552435588        9.8144387640        3.3670014255  CLST      26              1.0000000000
       130        26  DCM       CL2            -6.8816712471        9.7838449055        4.8356376224  CLST      26              1.0000000000
       131        27  DCM       C               4.5158832959       -3.2083917759       -5.4084924642  CLST      27              1.0000000000
       132        27  DCM       H1              5.3111843863       -2.8763611497       -4.7087496502  CLST      27              1.0000000000
       133        27  DCM       H2              4.5872717038       -4.2991449822       -5.6010173131  CLST      27              1.0000000000
       134        27  DCM       CL1             2.9214537952       -2.8466771485       -4.6865207996  CLST      27              1.0000000000
       135        27  DCM       CL2             4.6960534754       -2.3283598355       -6.9534138299  CLST      27              1.0000000000
       136        28  DCM       C               4.9653291650        2.9560482455        6.5042883969  CLST      28              1.0000000000
       137        28  DCM       H1              5.5418055092        3.2816110585        7.3962463730  CLST      28              1.0000000000
       138        28  DCM       H2              3.8969254229        3.2473397086        6.5886846749  CLST      28              1.0000000000
       139        28  DCM       CL1             5.6654963032        3.7212604426        5.0512239033  CLST      28              1.0000000000
       140        28  DCM       CL2             5.0756041703        1.1795061877        6.3570000094  CLST      28              1.0000000000
       141        29  DCM       C              -6.8203037793      -10.1670747492       -3.2627521761  CLST      29              1.0000000000
       142        29  DCM       H1             -7.6815396824       -9.8282114597       -2.6483909912  CLST      29              1.0000000000
       143        29  DCM       H2             -6.7210259051      -11.2728831377       -3.2364302400  CLST      29              1.0000000000
       144        29  DCM       CL1            -5.3246736536       -9.4346573096       -2.6191113826  CLST      29              1.0000000000
       145        29  DCM       CL2            -7.0642091772       -9.6414815245       -4.9535477111  CLST      29              1.0000000000
       146        30  DCM       C               8.6214478367        3.8008823941        2.6481183678  CLST      30              1.0000000000
       147        30  DCM       H1              8.1385575488        4.1650341110        1.7178838977  CLST      30              1.0000000000
       148        30  DCM       H2              8.2755968538        4.3830428183        3.5281426575  CLST      30              1.0000000000
       149        30  DCM       CL1             8.2039492473        2.0799095711        2.8811734281  CLST      30              1.0000000000
       150        30  DCM       CL2            10.3920342837        3.9765185439        2.4899874186  CLST      30              1.0000000000
       151        31  DCM       C               4.5151023451        9.0211557957       -1.3656025636  CLST      31              1.0000000000
       152        31  DCM       H1              4.7010836612        8.5973867882       -2.3747556990  CLST      31              1.0000000000
       153        31  DCM       H2              3.4556850872        9.3343217303       -1.2543425035  CLST      31              1.0000000000
       154        31  DCM       CL1             4.8905026646        7.7815766549       -0.1337215432  CLST      31              1.0000000000
       155        31  DCM       CL2             5.5640497375       10.4475799747       -1.1274877914  CLST      31              1.0000000000
       156        32  DCM       C              -2.6067033424        6.9757070865       -6.3327162743  CLST      32              1.0000000000
       157        32  DCM       H1             -2.0975426792        6.0029391114       -6.1719474230  CLST      32              1.0000000000
       158        32  DCM       H2             -3.0942761049        7.0092907693       -7.3301294369  CLST      32              1.0000000000
       159        32  DCM       CL1            -3.8488424879        7.1931575280       -5.0664269214  CLST      32              1.0000000000
       160        32  DCM       CL2            -1.3977435402        8.2887843602       -6.2309985880  CLST      32              1.0000000000
       161        33  DCM       C               2.3218908922        7.6869664600       -7.9247485462  CLST      33              1.0000000000
       162        33  DCM       H1              3.2176622475        8.1293110191       -7.4396647443  CLST      33              1.0000000000
       163        33  DCM       H2              1.4362583640        7.7341827661       -7.2582804564  CLST      33              1.0000000000
       164        33  DCM       CL1             2.6589142229        5.9780509515       -8.3125613879  CLST      33              1.0000000000
       165        33  DCM       CL2             1.9581058266        8.5880889780       -9.4234758549  CLST      33              1.0000000000
       166        34  DCM       C              -6.4395669333       -1.8668972358        3.9871503863  CLST      34              1.0000000000
       167        34  DCM       H1             -6.3216513001       -0.8021677919        3.7014487885  CLST      34              1.0000000000
       168        34  DCM       H2             -6.6148129265       -2.4979928811        3.0911579032  CLST      34              1.0000000000
       169        34  DCM       CL1            -4.9528551472       -2.4184436840        4.8071871708  CLST      34              1.0000000000
       170        34  DCM       CL2            -7.8281002472       -2.0189745075        5.0984503681  CLST      34              1.0000000000
       171        35  DCM       C               3.3641428923       -9.8896117036        3.5573697538  CLST      35              1.0000000000
       172        35  DCM       H1              4.0313870575      -10.0749008936        4.4251134901  CLST      35              1.0000000000
       173        35  DCM       H2              3.9502365697       -9.6115467025        2.6560357302  CLST      35              1.0000000000
       174        35  DCM       CL1             2.4384164382      -11.3774184386        3.2103183744  CLST      35              1.0000000000
       175        35  DCM       CL2             2.2386541065       -8.5605421870        3.9565718596  CLST      35              1.0000000000
       176        36  DCM       C              -1.5873442544       -3.5850212675        5.8184306271  CLST      36              1.0000000000
       177        36  DCM       H1             -1.8541227042       -2.5144481606        5.9435812033  CLST      36              1.0000000000
       178        36  DCM       H2             -0.5812822251       -3.7967291955        6.2384103330  CLST      36              1.0000000000
       179        36  DCM       CL1            -2.7991488752       -4.5909341146        6.6662506091  CLST      36              1.0000000000
       180        36  DCM       CL2            -1.5851179962       -3.9812808419        4.0757970222  CLST      36              1.0000000000
       181        37  DCM       C              -4.6617265963        4.5900911348        4.0425039391  CLST      37              1.0000000000
       182        37  DCM       H1             -3.8761265157        3.9610537873        3.5754316095  CLST      37              1.0000000000
       183        37  DCM       H2             -5.6264985286        4.0431285719        4.1015835857  CLST      37              1.0000000000
       184        37  DCM       CL1            -4.1469019487        5.0399233457        5.6918239834  CLST      37              1.0000000000
       185        37  DCM       CL2            -4.8781982503        6.0658157842        3.0610906047  CLST      37              1.0000000000
       186        38  DCM       C               5.1918724368        0.1466481302        1.0012954462  CLST      38              1.0000000000
       187        38  DCM       H1              4.9719187176       -0.9386646289        0.9213659329  CLST      38              1.0000000000
       188        38  DCM       H2              6.2577929261        0.3545746651        0.7752865488  CLST      38              1.0000000000
       189        38  DCM       CL1             4.1676886638        1.0379694972       -0.1544057966  CLST      38              1.0000000000
       190        38  DCM       CL2             4.8335202907        0.6929113248        2.6606851637  CLST      38              1.0000000000
       191        39  DCM       C               0.5724547255       -5.0230732531       -2.9091092392  CLST      39              1.0000000000
       192        39  DCM       H1              1.6391853053       -4.8979003127       -2.6273725918  CLST      39              1.0000000000
       193        39  DCM       H2              0.4561004440       -5.0968808092       -4.0098798646  CLST      39              1.0000000000
       194        39  DCM       CL1            -0.0617321722       -6.5172062653       -2.1665960658  CLST      39              1.0000000000
       195        39  DCM       CL2            -0.3506210046       -3.6155773490       -2.3178984092  CLST      39              1.0000000000
       196        40  DCM       C              -3.2613474856       -5.9895528088       -0.3018225570  CLST      40              1.0000000000
       197        40  DCM       H1             -2.3682192838       -5.4196958442       -0.6329892619  CLST      40              1.0000000000
       198        40  DCM       H2             -4.1630351254       -5.6806274212       -0.8709332139  CLST      40              1.0000000000
       199        40  DCM       CL1            -2.9708630760       -7.7310323563       -0.5667869458  CLST      40              1.0000000000
       200        40  DCM       CL2            -3.5363743842       -5.6799025051        1.4354073842  CLST      40              1.0000000000
       201        41  DCM       C              -0.0264265902        4.0659704719      -12.6672633623  CLST      41              1.0000000000
       202        41  DCM       H1              0.2159538067        5.0060144731      -12.1277024730  CLST      41              1.0000000000
       203        41  DCM       H2              0.0922418099        4.1938254691      -13.7643030825  CLST      41              1.0000000000
       204        41  DCM       CL1             1.0726284800        2.7708429656      -12.1077270391  CLST      41              1.0000000000
       205        41  DCM       CL2            -1.7204529208        3.6165236231      -12.3156294828  CLST      41              1.0000000000
       206        42  DCM       C               1.7050066028       -1.6010758033        0.1082820353  CLST      42              1.0000000000
       207        42  DCM       H1              0.7203110685       -2.0951835609       -0.0231278038  CLST      42              1.0000000000
       208        42  DCM       H2              1.6409183723       -0.5201894598       -0.1335507075  CLST      42              1.0000000000
       209        42  DCM       CL1             2.8964556585       -2.3677784094       -0.9778132117  CLST      42              1.0000000000
       210        42  DCM       CL2             2.2261790798       -1.7896289560        1.8060586393  CLST      42              1.0000000000
       211        43  DCM       C             -15.2501694647       -0.9079300420      -11.7040647270  CLST      43              1.0000000000
       212        43  DCM       H1            -14.1518488681       -1.0109308427      -11.8343347570  CLST      43              1.0000000000
       213        43  DCM       H2            -15.6867016416       -0.2534537544      -12.4879693510  CLST      43              1.0000000000
       214        43  DCM       CL1           -16.0021014941       -2.5262818712      -11.8124854832  CLST      43              1.0000000000
       215        43  DCM       CL2           -15.5817281238       -0.1931401050      -10.0990955122  CLST      43              1.0000000000
       216        44  DCM       C               6.8207994938       -4.0881635590       -1.7900282942  CLST      44              1.0000000000
       217        44  DCM       H1              7.4618168909       -3.9864706228       -2.6897100854  CLST      44              1.0000000000
       218        44  DCM       H2              7.2849710546       -4.7646608584       -1.0442174631  CLST      44              1.0000000000
       219        44  DCM       CL1             6.5954498583       -2.4812717934       -1.0454067331  CLST      44              1.0000000000
       220        44  DCM       CL2             5.2426614595       -4.7634661264       -2.2790869009  CLST      44              1.0000000000
       221        45  DCM       C             -10.7546011206        7.8353030135        5.0111729443  CLST      45              1.0000000000
       222        45  DCM       H1            -11.6567349640        8.3504668647        4.6202258815  CLST      45              1.0000000000
       223        45  DCM       H2             -9.9695847844        7.7581469381        4.2297479370  CLST      45              1.0000000000
       224        45  DCM       CL1           -10.1093496531        8.7636744902        6.3953507665  CLST      45              1.0000000000
       225        45  DCM       CL2           -11.2049164488        6.1904207602        5.5464911842  CLST      45              1.0000000000
       226        46  DCM       C              -6.2470131391       -8.0746617315        1.1323766815  CLST      46              1.0000000000
       227        46  DCM       H1             -5.9668918200       -7.4618292948        0.2500253152  CLST      46              1.0000000000
       228        46  DCM       H2             -5.7448700407       -7.7068980362        2.0514572180  CLST      46              1.0000000000
       229        46  DCM       CL1            -8.0170018525       -7.9834943582        1.3597870535  CLST      46              1.0000000000
       230        46  DCM       CL2            -5.7550034362       -9.7688323604        0.8484008666  CLST      46              1.0000000000
       231        47  DCM       C               1.2251404646        3.8010721606       -5.1806060564  CLST      47              1.0000000000
       232        47  DCM       H1              2.0063395769        3.5557382679       -5.9295564220  CLST      47              1.0000000000
       233        47  DCM       H2              1.6156756939        3.6998373428       -4.1464262331  CLST      47              1.0000000000
       234        47  DCM       CL1            -0.1612464574        2.6948618063       -5.3979686825  CLST      47              1.0000000000
       235        47  DCM       CL2             0.6925689649        5.4839314386       -5.4327669452  CLST      47              1.0000000000
       236        48  DCM       C               3.4600245621        1.0268637919       -7.9174840438  CLST      48              1.0000000000
       237        48  DCM       H1              3.4271106560        0.1099144825       -8.5433495779  CLST      48              1.0000000000
       238        48  DCM       H2              4.5044879554        1.3828092710       -7.7965167178  CLST      48              1.0000000000
       239        48  DCM       CL1             2.4904482317        2.3063410732       -8.7048511744  CLST      48              1.0000000000
       240        48  DCM       CL2             2.7775357228        0.6583334224       -6.3065837389  CLST      48              1.0000000000
       241        49  DCM       C              -9.7646271694       -7.9180015495      -11.6165440003  CLST      49              1.0000000000
       242        49  DCM       H1            -10.3410459978       -6.9739648348      -11.5148454618  CLST      49              1.0000000000
       243        49  DCM       H2             -9.1081831497       -8.0817895793      -10.7358914637  CLST      49              1.0000000000
       244        49  DCM       CL1           -10.9070314951       -9.2862081096      -11.7518076334  CLST      49              1.0000000000
       245        49  DCM       CL2            -8.7516341174       -7.8250769718      -13.0869848272  CLST      49              1.0000000000
       246        50  DCM       C               1.7514173815        0.7494719762        4.4147339807  CLST      50              1.0000000000
       247        50  DCM       H1              1.6051713312        0.6331716456        3.3211779584  CLST      50              1.0000000000
       248        50  DCM       H2              2.7930450955        0.5050403829        4.7036423992  CLST      50              1.0000000000
       249        50  DCM       CL1             0.6454434022       -0.3598618352        5.2774191454  CLST      50              1.0000000000
       250        50  DCM       CL2             1.4125107074        2.4445396035        4.8670242504  CLST      50              1.0000000000
       251        51  DCM       C             -14.2536082074        2.3432373083        6.7238618437  CLST      51              1.0000000000
       252        51  DCM       H1            -14.6015318524        1.6851126478        7.5474613117  CLST      51              1.0000000000
       253        51  DCM       H2            -14.0018516816        1.7516156925        5.8189859816  CLST      51              1.0000000000
       254        51  DCM       CL1           -15.5513142626        3.5001476209        6.3105051927  CLST      51              1.0000000000
       255        51  DCM       CL2           -12.7988265001        3.2310340280        7.2638972561  CLST      51              1.0000000000
       256        52  DCM       C               2.8521359961        4.9486996190       -1.4563690168  CLST      52              1.0000000000
       257        52  DCM       H1              1.9647874537        4.3045515040       -1.2815669903  CLST      52              1.0000000000
       258        52  DCM       H2              3.2387414345        5.3650575388       -0.5044694862  CLST      52              1.0000000000
       259        52  DCM       CL1             2.3987382913        6.3050915268       -2.5212201223  CLST      52              1.0000000000
       260        52  DCM       CL2             4.1370591082        3.9824057873       -2.2314011846  CLST      52              1.0000000000
       261        53  DCM       C               4.4005160977       -7.1716248391        6.5129951639  CLST      53              1.0000000000
       262        53  DCM       H1              4.2320797843       -8.2660561029        6.5770867184  CLST      53              1.0000000000
       263        53  DCM       H2              3.7593096566       -6.7158542556        5.7297034155  CLST      53              1.0000000000
       264        53  DCM       CL1             4.0125480284       -6.4287887766        8.0907779005  CLST      53              1.0000000000
       265        53  DCM       CL2             6.1147429238       -6.8745475246        6.1113979214  CLST      53              1.0000000000
       266        54  DCM       C              -2.8461906766       -2.2631609330       -0.0808702432  CLST      54              1.0000000000
       267        54  DCM       H1             -2.0927467527       -3.0502264388        0.1309619681  CLST      54              1.0000000000
       268        54  DCM       H2             -2.3584557160       -1.2862275942       -0.2750788155  CLST      54              1.0000000000
       269        54  DCM       CL1            -3.7927669458       -2.7251238392       -1.5239160908  CLST      54              1.0000000000
       270        54  DCM       CL2            -3.9250393084       -2.1019223741        1.3337588956  CLST      54              1.0000000000
       271        55  DCM       C               2.6461798859       -7.3450835789       -8.2170832848  CLST      55              1.0000000000
       272        55  DCM       H1              1.7225229436       -7.3928666514       -7.6026806795  CLST      55              1.0000000000
       273        55  DCM       H2              2.4252006584       -7.5476584703       -9.2858086627  CLST      55              1.0000000000
       274        55  DCM       CL1             3.3592695511       -5.7123213651       -8.0678229892  CLST      55              1.0000000000
       275        55  DCM       CL2             3.8031685743       -8.5700246372       -7.6190749306  CLST      55              1.0000000000
       276        56  DCM       C              -0.4219763304       -0.0504644873       -8.3788601400  CLST      56              1.0000000000
       277        56  DCM       H1              0.0488996117        0.7227266640       -7.7341625154  CLST      56              1.0000000000
       278        56  DCM       H2             -1.2327198626       -0.5806033926       -7.8382803282  CLST      56              1.0000000000
       279        56  DCM       CL1            -1.1059790806        0.7393036225       -9.8280726965  CLST      56              1.0000000000
       280        56  DCM       CL2             0.8238107131       -1.2328903975       -8.8727299088  CLST      56              1.0000000000
       281        57  DCM       C              -0.7008254159       -7.5778700661        6.1193006548  CLST      57              1.0000000000
       282        57  DCM       H1             -1.3479753059       -6.9040081452        5.5205276789  CLST      57              1.0000000000
       283        57  DCM       H2             -0.3323655661       -8.4234475725        5.5013592564  CLST      57              1.0000000000
       284        57  DCM       CL1            -1.6364795433       -8.2265599988        7.4961796074  CLST      57              1.0000000000
       285        57  DCM       CL2             0.6910228356       -6.6434198044        6.7309317907  CLST      57              1.0000000000
       286        58  DCM       C              -4.3895477110       -9.1022334829        5.4013501564  CLST      58              1.0000000000
       287        58  DCM       H1             -3.4578119403       -9.6840219541        5.5648521034  CLST      58              1.0000000000
       288        58  DCM       H2             -4.8895679415       -8.8666568457        6.3643907727  CLST      58              1.0000000000
       289        58  DCM       CL1            -5.5011555176      -10.0678048790        4.3914513221  CLST      58              1.0000000000
       290        58  DCM       CL2            -3.9857437910       -7.5750971774        4.5667236054  CLST      58              1.0000000000
       291        59  DCM       C               7.5026077292       -1.2473155978        4.2724774860  CLST      59              1.0000000000
       292        59  DCM       H1              7.0192485446       -2.1431810623        4.7118351807  CLST      59              1.0000000000
       293        59  DCM       H2              6.8567038742       -0.3512545196        4.3781172706  CLST      59              1.0000000000
       294        59  DCM       CL1             9.0432004251       -0.9472366783        5.1154650552  CLST      59              1.0000000000
       295        59  DCM       CL2             7.8154654512       -1.5521658445        2.5425766601  CLST      59              1.0000000000
       296        60  DCM       C               8.7688679150        2.1851031787        6.6305096787  CLST      60              1.0000000000
       297        60  DCM       H1              9.7336895351        1.6554731103        6.4836300765  CLST      60              1.0000000000
       298        60  DCM       H2              8.0105574497        1.8379488505        5.8980915490  CLST      60              1.0000000000
       299        60  DCM       CL1             9.0240805106        3.9408594641        6.4159723892  CLST      60              1.0000000000
       300        60  DCM       CL2             8.1735218464        1.8567455248        8.2827308123  CLST      60              1.0000000000
       301        61  DCM       C             -10.3102638177       -5.8724491047        3.3503814515  CLST      61              1.0000000000
       302        61  DCM       H1             -9.4438255385       -5.6821119968        2.6839029377  CLST      61              1.0000000000
       303        61  DCM       H2            -10.2381445064       -6.8773873319        3.8177849368  CLST      61              1.0000000000
       304        61  DCM       CL1           -10.3416452537       -4.6311276613        4.6356723343  CLST      61              1.0000000000
       305        61  DCM       CL2           -11.8104300775       -5.7827006385        2.3841009159  CLST      61              1.0000000000
       306        62  DCM       C              -6.4732668070        0.5665080591        7.2455975672  CLST      62              1.0000000000
       307        62  DCM       H1             -7.5641979326        0.5815193344        7.0384181629  CLST      62              1.0000000000
       308        62  DCM       H2             -5.9738165014       -0.2555186965        6.6921385855  CLST      62              1.0000000000
       309        62  DCM       CL1            -5.7655987811        2.1249494669        6.7373471136  CLST      62              1.0000000000
       310        62  DCM       CL2            -6.2122609604        0.3303397181        8.9970165762  CLST      62              1.0000000000
       311        63  DCM       C              10.0883417779       -4.4071020999        4.3594737399  CLST      63              1.0000000000
       312        63  DCM       H1             10.6685574637       -5.2229877253        3.8805018501  CLST      63              1.0000000000
       313        63  DCM       H2             10.2786801131       -3.4341630301        3.8594924987  CLST      63              1.0000000000
       314        63  DCM       CL1            10.5755960539       -4.2866578432        6.0734643325  CLST      63              1.0000000000
       315        63  DCM       CL2             8.3472374345       -4.7898580793        4.2473700469  CLST      63              1.0000000000
       316        64  DCM       C               3.5647552026        3.8923960083        2.0338299493  CLST      64              1.0000000000
       317        64  DCM       H1              3.0700541867        3.2886567445        1.2469172237  CLST      64              1.0000000000
       318        64  DCM       H2              3.6601496736        3.3163923471        2.9771268654  CLST      64              1.0000000000
       319        64  DCM       CL1             5.1899634082        4.3607727820        1.4598734152  CLST      64              1.0000000000
       320        64  DCM       CL2             2.5856338560        5.3500433817        2.3441699960  CLST      64              1.0000000000
       321        65  DCM       C              -1.0575377691        1.3437754130        1.1401660941  CLST      65              1.0000000000
       322        65  DCM       H1             -1.5660483452        1.1822993361        0.1666343345  CLST      65              1.0000000000
       323        65  DCM       H2             -1.6340610560        2.0471167152        1.7757466617  CLST      65              1.0000000000
       324        65  DCM       CL1            -0.9192796148       -0.2154773867        1.9970814839  CLST      65              1.0000000000
       325        65  DCM       CL2             0.5699607715        2.0172677905        0.8422087672  CLST      65              1.0000000000
       326        66  DCM       C              13.6718557468       -7.2354785508      -11.1487250066  CLST      66              1.0000000000
       327        66  DCM       H1             13.7663070753       -6.3253872198      -11.7782357700  CLST      66              1.0000000000
       328        66  DCM       H2             13.9917327049       -8.1420666954      -11.7047907014  CLST      66              1.0000000000
       329        66  DCM       CL1            14.7022894788       -7.0489787113       -9.6994109923  CLST      66              1.0000000000
       330        66  DCM       CL2            11.9633573911       -7.4276198829      -10.6575787760  CLST      66              1.0000000000
       331        67  DCM       C             -11.9309287044       -1.9166864667        1.9480133816  CLST      67              1.0000000000
       332        67  DCM       H1            -11.9115610645       -2.7412837451        1.2044103193  CLST      67              1.0000000000
       333        67  DCM       H2            -12.3015564300       -0.9740247473        1.4927485229  CLST      67              1.0000000000
       334        67  DCM       CL1           -13.0123068533       -2.3741379961        3.2957816943  CLST      67              1.0000000000
       335        67  DCM       CL2           -10.2745276889       -1.6499464472        2.5623250250  CLST      67              1.0000000000
       336        68  DCM       C             -14.2114591127        2.9874439426        2.6554268608  CLST      68              1.0000000000
       337        68  DCM       H1            -14.0903681380        3.2908765604        1.5943527160  CLST      68              1.0000000000
       338        68  DCM       H2            -15.1436190519        3.4068633003        3.0887395027  CLST      68              1.0000000000
       339        68  DCM       CL1           -14.2767321589        1.2036003256        2.7490134821  CLST      68              1.0000000000
       340        68  DCM       CL2           -12.8158181392        3.5915549416        3.5912671510  CLST      68              1.0000000000
       341        69  DCM       C              -0.7873103142        5.5989960023        1.6612306961  CLST      69              1.0000000000
       342        69  DCM       H1             -0.4289183586        6.5718288762        2.0563281883  CLST      69              1.0000000000
       343        69  DCM       H2             -0.0429529483        5.1463250984        0.9727681211  CLST      69              1.0000000000
       344        69  DCM       CL1            -1.0611981874        4.4982150957        3.0390407627  CLST      69              1.0000000000
       345        69  DCM       CL2            -2.3123461259        5.8580488285        0.7714944804  CLST      69              1.0000000000
       346        70  DCM       C               0.6829744558       -0.1547895725       -3.2731994251  CLST      70              1.0000000000
       347        70  DCM       H1              0.5648880445       -0.0747498819       -4.3744333644  CLST      70              1.0000000000
       348        70  DCM       H2              1.1306207494       -1.1307041372       -2.9945705137  CLST      70              1.0000000000
       349        70  DCM       CL1            -0.9215141167       -0.0041837326       -2.5020427981  CLST      70              1.0000000000
       350        70  DCM       CL2             1.7495230228        1.1572667226       -2.6979175750  CLST      70              1.0000000000
       351        71  DCM       C               7.4222709002        9.0419813071       -5.8204702961  CLST      71              1.0000000000
       352        71  DCM       H1              6.4443763722        8.7162101406       -6.2317021980  CLST      71              1.0000000000
       353        71  DCM       H2              7.8525850700        9.8697779747       -6.4234058213  CLST      71              1.0000000000
       354        71  DCM       CL1             8.5560304206        7.6605692895       -5.8339169174  CLST      71              1.0000000000
       355        71  DCM       CL2             7.1795851073        9.6057060911       -4.1445142531  CLST      71              1.0000000000
       356        72  DCM       C              -7.7954786229       -2.9262030412        8.6869850601  CLST      72              1.0000000000
       357        72  DCM       H1             -7.8220920872       -2.8954303529        9.7967348021  CLST      72              1.0000000000
       358        72  DCM       H2             -7.9990015152       -1.9245076129        8.2559067250  CLST      72              1.0000000000
       359        72  DCM       CL1            -6.1754220572       -3.4640071158        8.1553969412  CLST      72              1.0000000000
       360        72  DCM       CL2            -9.0415016615       -4.0666967215        8.1027338608  CLST      72              1.0000000000
       361        73  DCM       C              -5.5561868622        3.9037588993        0.1429560628  CLST      73              1.0000000000
       362        73  DCM       H1             -5.9751427224        3.7747198882       -0.8744756446  CLST      73              1.0000000000
       363        73  DCM       H2             -5.1948496689        4.9421622974        0.2967202586  CLST      73              1.0000000000
       364        73  DCM       CL1            -6.8357361096        3.5432360299        1.3372566350  CLST      73              1.0000000000
       365        73  DCM       CL2            -4.1897950107        2.7715662929        0.3454666695  CLST      73              1.0000000000
       366        74  DCM       C               1.7768629094       -5.4515585196        1.4531897197  CLST      74              1.0000000000
       367        74  DCM       H1              1.6681297949       -6.3718165874        2.0629580446  CLST      74              1.0000000000
       368        74  DCM       H2              2.3359360208       -4.6701501674        2.0065533962  CLST      74              1.0000000000
       369        74  DCM       CL1             2.6742848688       -5.8378566763       -0.0397512569  CLST      74              1.0000000000
       370        74  DCM       CL2             0.1550576300       -4.8264563795        1.0436324209  CLST      74              1.0000000000
       371        75  DCM       C               1.8805180806      -10.3135660065        7.5930148497  CLST      75              1.0000000000
       372        75  DCM       H1              1.8985429278       -9.2158443096        7.4295812538  CLST      75              1.0000000000
       373        75  DCM       H2              1.6104789081      -10.5563884347        8.6426494447  CLST      75              1.0000000000
       374        75  DCM       CL1             0.6743922219      -11.0459713961        6.4970977893  CLST      75              1.0000000000
       375        75  DCM       CL2             3.4993515806      -10.9824797201        7.2387641879  CLST      75              1.0000000000
       376        76  DCM       C               0.3025177875       -4.2956789428       -6.8357108749  CLST      76              1.0000000000
       377        76  DCM       H1              1.2393283088       -4.5524371684       -6.2989342234  CLST      76              1.0000000000
       378        76  DCM       H2              0.5196681305       -3.9391380198       -7.8641710145  CLST      76              1.0000000000
       379        76  DCM       CL1            -0.7197523631       -5.7564484101       -6.9359942667  CLST      76              1.0000000000
       380        76  DCM       CL2            -0.5555482213       -3.0094422609       -5.9358797394  CLST      76              1.0000000000
       381        77  DCM       C               1.1092897580        9.9749972064        4.4742385125  CLST      77              1.0000000000
       382        77  DCM       H1              0.8878553724       10.5898646781        3.5767078852  CLST      77              1.0000000000
       383        77  DCM       H2              0.2113420198        9.8738878533        5.1198075558  CLST      77              1.0000000000
       384        77  DCM       CL1             1.6375398715        8.3502547301        3.9495050378  CLST      77              1.0000000000
       385        77  DCM       CL2             2.4142471552       10.7617329190        5.4083330094  CLST      77              1.0000000000
       386        78  DCM       C               4.3248858215        4.5586776131      -11.3253111937  CLST      78              1.0000000000
       387        78  DCM       H1              4.3100873598        4.4842349721      -10.2177208824  CLST      78              1.0000000000
       388        78  DCM       H2              4.0399778374        3.5921685491      -11.7926702511  CLST      78              1.0000000000
       389        78  DCM       CL1             3.1695229933        5.8201407682      -11.8466140974  CLST      78              1.0000000000
       390        78  DCM       CL2             5.9746397711        4.9958623831      -11.8556544965  CLST      78              1.0000000000
       391        79  DCM       C              -6.5246497212       -6.1208837687       -3.2486066830  CLST      79              1.0000000000
       392        79  DCM       H1             -6.5820093331       -6.5585412906       -4.2677344310  CLST      79              1.0000000000
       393        79  DCM       H2             -5.5579973756       -6.3680156466       -2.7630813331  CLST      79              1.0000000000
       394        79  DCM       CL1            -6.6782520140       -4.3438473269       -3.3676619949  CLST      79              1.0000000000
       395        79  DCM       CL2            -7.8533315051       -6.7841323316       -2.2550547497  CLST      79              1.0000000000
       396        80  DCM       C               1.7905935799        9.2845333780       -4.7352076336  CLST      80              1.0000000000
       397        80  DCM       H1              1.7556370911        8.1778420402       -4.8115830732  CLST      80              1.0000000000
       398        80  DCM       H2              1.1805262156        9.7630752076       -5.5302366803  CLST      80              1.0000000000
       399        80  DCM       CL1             3.4859918774        9.8275049642       -4.8955556902  CLST      80              1.0000000000
       400        80  DCM       CL2             1.1410937722        9.7688502241       -3.1446620805  CLST      80              1.0000000000
       401        81  DCM       C              10.1818526026       -2.3142834802        9.9238338911  CLST      81              1.0000000000
       402        81  DCM       H1             10.5170257551       -1.7131689537       10.7953043910  CLST      81              1.0000000000
       403        81  DCM       H2              9.1931389626       -2.7811583511       10.1171397338  CLST      81              1.0000000000
       404        81  DCM       CL1            10.0504230844       -1.2459939113        8.4991637522  CLST      81              1.0000000000
       405        81  DCM       CL2            11.3825311426       -3.5990944282        9.6044774254  CLST      81              1.0000000000
       406        82  DCM       C              -1.8988770586        5.0712734948       -2.7368626987  CLST      82              1.0000000000
       407        82  DCM       H1             -1.9737117249        4.8389934820       -3.8200662188  CLST      82              1.0000000000
       408        82  DCM       H2             -2.9019959012        5.0772912301       -2.2596182082  CLST      82              1.0000000000
       409        82  DCM       CL1            -0.8838493248        3.8307461834       -1.9452319095  CLST      82              1.0000000000
       410        82  DCM       CL2            -1.1524116424        6.6842993667       -2.5383341761  CLST      82              1.0000000000
       411        83  DCM       C              -8.9996006871        2.9221395840        4.4700445001  CLST      83              1.0000000000
       412        83  DCM       H1             -9.9995859909        2.9029964761        3.9897727924  CLST      83              1.0000000000
       413        83  DCM       H2             -8.4060715913        3.7902557886        4.1181343297  CLST      83              1.0000000000
       414        83  DCM       CL1            -9.2133940649        3.0308403093        6.2407208879  CLST      83              1.0000000000
       415        83  DCM       CL2            -8.1251023520        1.4235528908        4.0501599895  CLST      83              1.0000000000
       416        84  DCM       C              12.6054745926        3.0942143584        7.2323881945  CLST      84              1.0000000000
       417        84  DCM       H1             13.6693561891        3.3669885892        7.3960776725  CLST      84              1.0000000000
       418        84  DCM       H2             11.9305134887        3.9349099003        7.4991160946  CLST      84              1.0000000000
       419        84  DCM       CL1            12.3704059835        2.6858990846        5.5081866241  CLST      84              1.0000000000
       420        84  DCM       CL2            12.2041866034        1.6819158213        8.2520557273  CLST      84              1.0000000000
       421        85  DCM       C              -3.2553879398      -11.2255589878       -5.0245110936  CLST      85              1.0000000000
       422        85  DCM       H1             -4.0227788412      -10.4697034564       -5.2944949211  CLST      85              1.0000000000
       423        85  DCM       H2             -2.7278249969      -11.6007067956       -5.9265456085  CLST      85              1.0000000000
       424        85  DCM       CL1            -2.0632056377      -10.4791345812       -3.9207479239  CLST      85              1.0000000000
       425        85  DCM       CL2            -4.0601540252      -12.5974195195       -4.2089288219  CLST      85              1.0000000000
       426        86  DCM       C               8.9812537880        1.9686418225       -0.8567187497  CLST      86              1.0000000000
       427        86  DCM       H1              9.6077007372        2.5492522986       -0.1476683409  CLST      86              1.0000000000
       428        86  DCM       H2              9.3858161985        2.0334017106       -1.8892664971  CLST      86              1.0000000000
       429        86  DCM       CL1             8.9575803293        0.2572231905       -0.3453714386  CLST      86              1.0000000000
       430        86  DCM       CL2             7.3207495642        2.6230928448       -0.8367695162  CLST      86              1.0000000000
       431        87  DCM       C               3.7689937566       -3.7304110752        5.3959669219  CLST      87              1.0000000000
       432        87  DCM       H1              3.7749291742       -3.8284883048        6.5022245757  CLST      87              1.0000000000
       433        87  DCM       H2              4.5228429777       -4.3985973386        4.9280270469  CLST      87              1.0000000000
       434        87  DCM       CL1             2.1483539313       -4.1566804949        4.7807911189  CLST      87              1.0000000000
       435        87  DCM       CL2             4.1448563167       -2.0419826555        4.9626407335  CLST      87              1.0000000000
       436        88  DCM       C              -1.0898244340        6.8155688266        6.0509577745  CLST      88              1.0000000000
       437        88  DCM       H1             -1.2447551816        5.7200783035        5.9512643087  CLST      88              1.0000000000
       438        88  DCM       H2             -0.0083779620        7.0622004811        6.0960213703  CLST      88              1.0000000000
       439        88  DCM       CL1            -1.8189047729        7.6351018588        4.6407609786  CLST      88              1.0000000000
       440        88  DCM       CL2            -1.8814895749        7.3849127871        7.5488550998  CLST      88              1.0000000000
       441        89  DCM       C               5.2553145549        7.2637298986        3.6914253818  CLST      89              1.0000000000
       442        89  DCM       H1              4.5944135252        7.7703031985        2.9569189677  CLST      89              1.0000000000
       443        89  DCM       H2              4.9181513618        6.2232710820        3.8723849331  CLST      89              1.0000000000
       444        89  DCM       CL1             6.9250781309        7.2291846039        3.0543993799  CLST      89              1.0000000000
       445        89  DCM       CL2             5.2096047310        8.1556319222        5.2386332619  CLST      89              1.0000000000
       446        90  DCM       C             -14.6984101633        6.6871147906        4.2942665190  CLST      90              1.0000000000
       447        90  DCM       H1            -14.1918293277        5.8963526626        4.8875387452  CLST      90              1.0000000000
       448        90  DCM       H2            -14.8216734605        7.6147072569        4.8922140624  CLST      90              1.0000000000
       449        90  DCM       CL1           -16.3100891721        6.0976839129        3.7944832829  CLST      90              1.0000000000
       450        90  DCM       CL2           -13.7161383466        7.0526326117        2.8457978169  CLST      90              1.0000000000
       451        91  DCM       C              -7.8854274270        4.2176497276       -3.5880239374  CLST      91              1.0000000000
       452        91  DCM       H1             -7.9596809427        3.1486783926       -3.8806182114  CLST      91              1.0000000000
       453        91  DCM       H2             -8.4183389034        4.8685815654       -4.3130653154  CLST      91              1.0000000000
       454        91  DCM       CL1            -8.6196317591        4.4287397563       -1.9711964219  CLST      91              1.0000000000
       455        91  DCM       CL2            -6.1605536527        4.6897728828       -3.5429731918  CLST      91              1.0000000000
       456        92  DCM       C              -0.6540456919        4.3157045108       -8.8096680268  CLST      92              1.0000000000
       457        92  DCM       H1              0.1223503560        4.2568132014       -8.0196941420  CLST      92              1.0000000000
       458        92  DCM       H2             -0.3891176812        3.6654569650       -9.6684813345  CLST      92              1.0000000000
       459        92  DCM       CL1            -2.2199891587        3.7793631061       -8.1361257665  CLST      92              1.0000000000
       460        92  DCM       CL2            -0.7862809369        6.0062148122       -9.3731422307  CLST      92              1.0000000000
       461        93  DCM       C              13.3997543215       -1.8167892600        6.9714118537  CLST      93              1.0000000000
       462        93  DCM       H1             13.0945584469       -2.8841224007        6.9997417254  CLST      93              1.0000000000
       463        93  DCM       H2             13.1898782079       -1.3160402610        7.9402861468  CLST      93              1.0000000000
       464        93  DCM       CL1            15.1505303996       -1.7191779857        6.6270396555  CLST      93              1.0000000000
       465        93  DCM       CL2            12.4875297443       -0.9863082163        5.6807234532  CLST      93              1.0000000000
       466        94  DCM       C               2.4303626608       -8.3356382179       -4.0871474227  CLST      94              1.0000000000
       467        94  DCM       H1              3.1357815302       -9.1376377281       -4.3922063292  CLST      94              1.0000000000
       468        94  DCM       H2              2.2224098183       -8.3807082391       -2.9972957655  CLST      94              1.0000000000
       469        94  DCM       CL1             3.1510170332       -6.7475378756       -4.4776932413  CLST      94              1.0000000000
       470        94  DCM       CL2             0.8968271342       -8.5378618413       -4.9830853945  CLST      94              1.0000000000
       471        95  DCM       C              -6.8541105881       -5.6470591785        5.3693200980  CLST      95              1.0000000000
       472        95  DCM       H1             -7.5095503739       -4.8440227479        5.7630365726  CLST      95              1.0000000000
       473        95  DCM       H2             -5.8605800019       -5.6273003118        5.8654668518  CLST      95              1.0000000000
       474        95  DCM       CL1            -7.6332543897       -7.2269083439        5.6668561639  CLST      95              1.0000000000
       475        95  DCM       CL2            -6.6365436515       -5.4034938831        3.6143643276  CLST      95              1.0000000000
       476        96  DCM       C             -10.8108476836        6.0636737769        0.6875949534  CLST      96              1.0000000000
       477        96  DCM       H1            -11.3597450629        6.9707711687        1.0167896611  CLST      96              1.0000000000
       478        96  DCM       H2            -10.0797558245        6.3108665508       -0.1103070009  CLST      96              1.0000000000
       479        96  DCM       CL1           -11.9811639112        4.8696004846        0.0570088148  CLST      96              1.0000000000
       480        96  DCM       CL2            -9.9354908871        5.3767155757        2.0853030199  CLST      96              1.0000000000
       481        97  DCM       C               1.2285712457       -9.2694403557        0.1682356573  CLST      97              1.0000000000
       482        97  DCM       H1              1.0242942902       -9.8092787531        1.1169588493  CLST      97              1.0000000000
       483        97  DCM       H2              0.9352040458       -8.2016726494        0.2477166110  CLST      97              1.0000000000
       484        97  DCM       CL1             2.9735189953       -9.3768844375       -0.2046100419  CLST      97              1.0000000000
       485        97  DCM       CL2             0.2833659530      -10.0260673415       -1.1442236131  CLST      97              1.0000000000
       486        98  DCM       C               0.3182829390        9.6628889777        0.5170161497  CLST      98              1.0000000000
       487        98  DCM       H1              0.0250660164       10.0916767567       -0.4638852788  CLST      98              1.0000000000
       488        98  DCM       H2              0.9835471099       10.3548332020        1.0724355130  CLST      98              1.0000000000
       489        98  DCM       CL1             1.1885263874        8.1262718260        0.2502076716  CLST      98              1.0000000000
       490        98  DCM       CL2            -1.1545593587        9.3731969730        1.4848292822  CLST      98              1.0000000000
