* PRE_MLPOT:MONOMER_REPACK
*  DATE:     6/28/26      2: 0:55      CREATED BY USER: boittier
*
       490  EXT
         1         1  DCM       C              -0.9884078336       -1.8964423337        0.6951870243  CLST      1               1.0000000000
         2         1  DCM       H1              0.0556089264       -1.6770044445        0.3919868779  CLST      1               1.0000000000
         3         1  DCM       H2             -1.5570928480       -2.3587116077       -0.1382531743  CLST      1               1.0000000000
         4         1  DCM       CL1            -1.7815098391       -0.3679788818        1.1698909750  CLST      1               1.0000000000
         5         1  DCM       CL2            -0.9644696033       -3.0254396576        2.0789980534  CLST      1               1.0000000000
         6         2  DCM       C               1.6193760920       -2.5909450415        0.2947143830  CLST      2               1.0000000000
         7         2  DCM       H1              1.3354923522       -3.1657182801        1.1997465824  CLST      2               1.0000000000
         8         2  DCM       H2              2.6651461864       -2.8160960500       -0.0017434427  CLST      2               1.0000000000
         9         2  DCM       CL1             0.5233625035       -3.0343773553       -1.0449478440  CLST      2               1.0000000000
        10         2  DCM       CL2             1.4732785006       -0.8449863938        0.6424067121  CLST      2               1.0000000000
        11         3  DCM       C              -0.1326617903       -2.1063900756       -1.8058629304  CLST      3               1.0000000000
        12         3  DCM       H1             -0.1477284277       -2.8158539418       -0.9522377670  CLST      3               1.0000000000
        13         3  DCM       H2              0.6956925381       -1.3748253011       -1.7014358358  CLST      3               1.0000000000
        14         3  DCM       CL1             0.0938961035       -3.0245011082       -3.3229384483  CLST      3               1.0000000000
        15         3  DCM       CL2            -1.6859048751       -1.2230388497       -1.8500357968  CLST      3               1.0000000000
        16         4  DCM       C              -1.6949062756       -0.4636499093       -2.2120624728  CLST      4               1.0000000000
        17         4  DCM       H1             -0.8128532133       -0.6648577514       -1.5679792644  CLST      4               1.0000000000
        18         4  DCM       H2             -1.6233577258       -1.0181831003       -3.1718440342  CLST      4               1.0000000000
        19         4  DCM       CL1            -3.1732306060       -0.9823340673       -1.3501871356  CLST      4               1.0000000000
        20         4  DCM       CL2            -1.7750960479        1.2886475777       -2.5583289401  CLST      4               1.0000000000
        21         5  DCM       C               2.4200817729        1.2297388493        2.0411012873  CLST      5               1.0000000000
        22         5  DCM       H1              2.5180590060        1.0885290540        3.1380907143  CLST      5               1.0000000000
        23         5  DCM       H2              3.0693824236        0.5199311409        1.4856598758  CLST      5               1.0000000000
        24         5  DCM       CL1             0.7202221998        0.9505743162        1.5681788142  CLST      5               1.0000000000
        25         5  DCM       CL2             2.8962919578        2.9011716359        1.6260884889  CLST      5               1.0000000000
        26         6  DCM       C              -2.7193114027        0.2132813960       -1.6411930870  CLST      6               1.0000000000
        27         6  DCM       H1             -2.2671631339       -0.7802773919       -1.4358271013  CLST      6               1.0000000000
        28         6  DCM       H2             -3.7305948749        0.2948990936       -1.1887952392  CLST      6               1.0000000000
        29         6  DCM       CL1            -1.6667566126        1.4848619466       -0.9560298507  CLST      6               1.0000000000
        30         6  DCM       CL2            -2.8593584461        0.4336754558       -3.4078215151  CLST      6               1.0000000000
        31         7  DCM       C              -1.4846501333        3.2642675273       -2.7198159931  CLST      7               1.0000000000
        32         7  DCM       H1             -0.4651900599        3.2233849700       -2.2820240784  CLST      7               1.0000000000
        33         7  DCM       H2             -1.7074319868        4.2763135849       -3.1191931606  CLST      7               1.0000000000
        34         7  DCM       CL1            -1.5900610291        2.0766384634       -4.0525421590  CLST      7               1.0000000000
        35         7  DCM       CL2            -2.6784347432        2.8644123595       -1.4495016650  CLST      7               1.0000000000
        36         8  DCM       C               1.1156137096        0.7085848280       -1.2004077468  CLST      8               1.0000000000
        37         8  DCM       H1              0.2339999563        1.2206360344       -0.7626801231  CLST      8               1.0000000000
        38         8  DCM       H2              1.6189682560        0.0705570945       -0.4437377674  CLST      8               1.0000000000
        39         8  DCM       CL1             0.5778922837       -0.3152633163       -2.5634967684  CLST      8               1.0000000000
        40         8  DCM       CL2             2.2670073632        1.9453562642       -1.7813677337  CLST      8               1.0000000000
        41         9  DCM       C               2.8119499227        3.1241036584        0.8112534181  CLST      9               1.0000000000
        42         9  DCM       H1              3.9152655869        3.2211939529        0.8845027406  CLST      9               1.0000000000
        43         9  DCM       H2              2.5213522466        2.1205654593        0.4333602147  CLST      9               1.0000000000
        44         9  DCM       CL1             2.2024710141        4.3715760385       -0.3136768768  CLST      9               1.0000000000
        45         9  DCM       CL2             2.1067738159        3.3612808122        2.4363144185  CLST      9               1.0000000000
        46        10  DCM       C              -2.8232674388       -3.2124078766       -0.6941899099  CLST      10              1.0000000000
        47        10  DCM       H1             -1.7628176181       -2.8878501961       -0.6488940566  CLST      10              1.0000000000
        48        10  DCM       H2             -3.4089271226       -2.5656810816       -1.3807379587  CLST      10              1.0000000000
        49        10  DCM       CL1            -2.8993267269       -4.9028019059       -1.2735013170  CLST      10              1.0000000000
        50        10  DCM       CL2            -3.5227388123       -3.1019194854        0.9434850487  CLST      10              1.0000000000
        51        11  DCM       C              -2.0077469129       -0.8349556050       -2.4967473436  CLST      11              1.0000000000
        52        11  DCM       H1             -0.9544036064       -0.9164286454       -2.1544643892  CLST      11              1.0000000000
        53        11  DCM       H2             -2.4341356096        0.1564436375       -2.2354610193  CLST      11              1.0000000000
        54        11  DCM       CL1            -2.0656204940       -1.0456503228       -4.2710986091  CLST      11              1.0000000000
        55        11  DCM       CL2            -2.9758554212       -2.1116186295       -1.7047269378  CLST      11              1.0000000000
        56        12  DCM       C              -0.3696255769        1.2002005352       -2.6802739226  CLST      12              1.0000000000
        57        12  DCM       H1             -0.3690944942        2.2721944955       -2.9666042751  CLST      12              1.0000000000
        58        12  DCM       H2             -0.5096385346        1.0780299344       -1.5859460063  CLST      12              1.0000000000
        59        12  DCM       CL1            -1.7103300497        0.3829160021       -3.5304244111  CLST      12              1.0000000000
        60        12  DCM       CL2             1.1894844101        0.4679581593       -3.1480706038  CLST      12              1.0000000000
        61        13  DCM       C              -4.1345335266       -1.6415833531       -0.7877280588  CLST      13              1.0000000000
        62        13  DCM       H1             -4.6510014168       -1.0891684721       -1.6000471585  CLST      13              1.0000000000
        63        13  DCM       H2             -4.5610546143       -1.3815492326        0.2043091976  CLST      13              1.0000000000
        64        13  DCM       CL1            -4.3282428352       -3.3945432589       -1.0627478732  CLST      13              1.0000000000
        65        13  DCM       CL2            -2.3988998042       -1.2176313840       -0.8097117847  CLST      13              1.0000000000
        66        14  DCM       C              -2.2093695668       -1.9057758639       -1.8650704759  CLST      14              1.0000000000
        67        14  DCM       H1             -1.7747528047       -2.0039273483       -0.8484105537  CLST      14              1.0000000000
        68        14  DCM       H2             -1.4274787994       -2.0141200531       -2.6460906525  CLST      14              1.0000000000
        69        14  DCM       CL1            -3.4421194306       -3.1792020862       -2.0953956342  CLST      14              1.0000000000
        70        14  DCM       CL2            -2.9646230134       -0.2931864392       -2.0166886885  CLST      14              1.0000000000
        71        15  DCM       C              -1.0189991479       -0.6207491001        1.1210242818  CLST      15              1.0000000000
        72        15  DCM       H1             -0.2126354327        0.1143686392        1.3286045538  CLST      15              1.0000000000
        73        15  DCM       H2             -1.0460666229       -0.8901013455        0.0438199950  CLST      15              1.0000000000
        74        15  DCM       CL1            -0.7191448381       -2.0982162229        2.0827687660  CLST      15              1.0000000000
        75        15  DCM       CL2            -2.5920564741        0.0946919398        1.5823022965  CLST      15              1.0000000000
        76        16  DCM       C              -1.8162855755       -0.8546737103       -1.1405423916  CLST      16              1.0000000000
        77        16  DCM       H1             -2.8005306494       -1.2503483080       -0.8131976876  CLST      16              1.0000000000
        78        16  DCM       H2             -1.2284886725       -1.6377967826       -1.6638962959  CLST      16              1.0000000000
        79        16  DCM       CL1            -2.0824234299        0.5134143438       -2.2564558484  CLST      16              1.0000000000
        80        16  DCM       CL2            -0.9054808127       -0.2926324306        0.2900798625  CLST      16              1.0000000000
        81        17  DCM       C              -0.2133662919       -1.4900391110        2.2469809350  CLST      17              1.0000000000
        82        17  DCM       H1              0.7230833498       -1.2084094758        1.7207574759  CLST      17              1.0000000000
        83        17  DCM       H2              0.0063799185       -2.0584271071        3.1742692264  CLST      17              1.0000000000
        84        17  DCM       CL1            -1.1188147386       -0.0084777147        2.6664422613  CLST      17              1.0000000000
        85        17  DCM       CL2            -1.2007396828       -2.5092483751        1.1668800597  CLST      17              1.0000000000
        86        18  DCM       C               1.3660271956       -2.6043227920       -2.8668785442  CLST      18              1.0000000000
        87        18  DCM       H1              1.8684073368       -2.4633719304       -3.8467941776  CLST      18              1.0000000000
        88        18  DCM       H2              1.8867914999       -2.0357712434       -2.0691928368  CLST      18              1.0000000000
        89        18  DCM       CL1            -0.3191382310       -2.0239294938       -2.9839652437  CLST      18              1.0000000000
        90        18  DCM       CL2             1.3798874112       -4.3406831981       -2.4470394427  CLST      18              1.0000000000
        91        19  DCM       C              -2.4755255571        2.6659491743        2.5643532791  CLST      19              1.0000000000
        92        19  DCM       H1             -1.6609129246        2.7844805451        1.8188304542  CLST      19              1.0000000000
        93        19  DCM       H2             -3.4318130629        2.3964288398        2.0683925588  CLST      19              1.0000000000
        94        19  DCM       CL1            -2.0302640636        1.3707311977        3.7125815456  CLST      19              1.0000000000
        95        19  DCM       CL2            -2.6918786860        4.2061814957        3.4452008008  CLST      19              1.0000000000
        96        20  DCM       C               1.8376132693        0.7717123698       -1.8073973492  CLST      20              1.0000000000
        97        20  DCM       H1              0.7381738377        0.9199451722       -1.7504319024  CLST      20              1.0000000000
        98        20  DCM       H2              2.2033324272        0.1649780273       -0.9522457761  CLST      20              1.0000000000
        99        20  DCM       CL1             2.2345375661       -0.0737926672       -3.3322457268  CLST      20              1.0000000000
       100        20  DCM       CL2             2.6425635089        2.3677895475       -1.7737671088  CLST      20              1.0000000000
       101        21  DCM       C               2.9014690399       -0.9939566383        1.1081545009  CLST      21              1.0000000000
       102        21  DCM       H1              4.0004462850       -1.0008986383        1.2660620899  CLST      21              1.0000000000
       103        21  DCM       H2              2.6491801250       -1.2568910820        0.0597023084  CLST      21              1.0000000000
       104        21  DCM       CL1             2.1399065813       -2.1839156711        2.2009835971  CLST      21              1.0000000000
       105        21  DCM       CL2             2.2689453822        0.6370674305        1.4664247774  CLST      21              1.0000000000
       106        22  DCM       C               1.4945193470        2.3966037410       -1.8606313278  CLST      22              1.0000000000
       107        22  DCM       H1              0.8580944728        2.0461173227       -1.0219269930  CLST      22              1.0000000000
       108        22  DCM       H2              2.1964419311        1.5994290545       -2.1842584578  CLST      22              1.0000000000
       109        22  DCM       CL1             0.4500525553        2.8526221489       -3.2370263568  CLST      22              1.0000000000
       110        22  DCM       CL2             2.4291425057        3.8176917119       -1.3185280162  CLST      22              1.0000000000
       111        23  DCM       C              -0.1493902173       -3.3845885347        0.7963262498  CLST      23              1.0000000000
       112        23  DCM       H1             -1.2046443078       -3.7304386336        0.7782271534  CLST      23              1.0000000000
       113        23  DCM       H2             -0.0625771084       -2.3471528909        0.4118085386  CLST      23              1.0000000000
       114        23  DCM       CL1             0.4474607213       -3.4262261479        2.4800798008  CLST      23              1.0000000000
       115        23  DCM       CL2             0.8423885919       -4.4720996706       -0.2189472512  CLST      23              1.0000000000
       116        24  DCM       C               2.1115920446        1.7718211967        0.8163560417  CLST      24              1.0000000000
       117        24  DCM       H1              2.7828359929        2.2810304489        1.5376134961  CLST      24              1.0000000000
       118        24  DCM       H2              1.2306311691        2.4018787843        0.5762470104  CLST      24              1.0000000000
       119        24  DCM       CL1             3.0209681511        1.4366926307       -0.6844692389  CLST      24              1.0000000000
       120        24  DCM       CL2             1.5418155502        0.2399179615        1.5324217179  CLST      24              1.0000000000
       121        25  DCM       C              -0.3691058306        1.8614615785       -1.2197485930  CLST      25              1.0000000000
       122        25  DCM       H1             -1.4598810050        2.0517307927       -1.1282683492  CLST      25              1.0000000000
       123        25  DCM       H2             -0.1219389921        1.4702736141       -2.2289383343  CLST      25              1.0000000000
       124        25  DCM       CL1             0.5176676956        3.3892332447       -0.9484316167  CLST      25              1.0000000000
       125        25  DCM       CL2             0.1230480795        0.6605436025        0.0064915756  CLST      25              1.0000000000
       126        26  DCM       C              -2.1838041879       -2.4900177501       -2.1776350087  CLST      26              1.0000000000
       127        26  DCM       H1             -1.6975215447       -1.9603853953       -1.3314664774  CLST      26              1.0000000000
       128        26  DCM       H2             -2.0990786756       -3.5906286675       -2.0545801951  CLST      26              1.0000000000
       129        26  DCM       CL1            -1.3861676123       -2.0073225041       -3.7028357369  CLST      26              1.0000000000
       130        26  DCM       CL2            -3.9125953007       -2.0379163626       -2.2341995401  CLST      26              1.0000000000
       131        27  DCM       C              -2.8366148447        1.8446194232       -2.3035321374  CLST      27              1.0000000000
       132        27  DCM       H1             -2.0413137543        2.1766500494       -1.6037893233  CLST      27              1.0000000000
       133        27  DCM       H2             -2.7652264367        0.7538662169       -2.4960569862  CLST      27              1.0000000000
       134        27  DCM       CL1            -4.4310443453        2.2063340506       -1.5815604727  CLST      27              1.0000000000
       135        27  DCM       CL2            -2.6564446651        2.7246513636       -3.8484535031  CLST      27              1.0000000000
       136        28  DCM       C               0.6398360538        2.6236836899       -0.2476968709  CLST      28              1.0000000000
       137        28  DCM       H1              1.2163123980        2.9492465029        0.6442611052  CLST      28              1.0000000000
       138        28  DCM       H2             -0.4285676883        2.9149751530       -0.1633005929  CLST      28              1.0000000000
       139        28  DCM       CL1             1.3400031920        3.3888958870       -1.7007613645  CLST      28              1.0000000000
       140        28  DCM       CL2             0.7501110591        0.8471416321       -0.3949852584  CLST      28              1.0000000000
       141        29  DCM       C               0.0209296482        0.7471424227        2.1531861014  CLST      29              1.0000000000
       142        29  DCM       H1             -0.8403062549        1.0860057122        2.7675472863  CLST      29              1.0000000000
       143        29  DCM       H2              0.1202075224       -0.3586659658        2.1795080375  CLST      29              1.0000000000
       144        29  DCM       CL1             1.5165597739        1.4795598623        2.7968268948  CLST      29              1.0000000000
       145        29  DCM       CL2            -0.2229757497        1.2727356474        0.4623905664  CLST      29              1.0000000000
       146        30  DCM       C              -0.2174527172        0.0999712529       -2.7741402042  CLST      30              1.0000000000
       147        30  DCM       H1             -0.7003430051        0.4641229698       -3.7043746743  CLST      30              1.0000000000
       148        30  DCM       H2             -0.5633037001        0.6821316772       -1.8941159145  CLST      30              1.0000000000
       149        30  DCM       CL1            -0.6349513065       -1.6210015701       -2.5410851439  CLST      30              1.0000000000
       150        30  DCM       CL2             1.5531337298        0.2756074028       -2.9322711534  CLST      30              1.0000000000
       151        31  DCM       C               0.1923341369       -2.9000251059       -2.9132049938  CLST      31              1.0000000000
       152        31  DCM       H1              0.3783154530       -3.3237941134       -3.9223581292  CLST      31              1.0000000000
       153        31  DCM       H2             -0.8670831209       -2.5868591713       -2.8019449337  CLST      31              1.0000000000
       154        31  DCM       CL1             0.5677344565       -4.1396042468       -1.6813239734  CLST      31              1.0000000000
       155        31  DCM       CL2             1.2412815293       -1.4736009270       -2.6750902216  CLST      31              1.0000000000
       156        32  DCM       C               2.2475605888        0.7820438289        2.6621521943  CLST      32              1.0000000000
       157        32  DCM       H1              2.7567212520       -0.1907241462        2.8229210456  CLST      32              1.0000000000
       158        32  DCM       H2              1.7599878263        0.8156275117        1.6647390317  CLST      32              1.0000000000
       159        32  DCM       CL1             1.0054214433        0.9994942703        3.9284415472  CLST      32              1.0000000000
       160        32  DCM       CL2             3.4565203910        2.0951211025        2.7638698806  CLST      32              1.0000000000
       161        33  DCM       C              -0.0770222389       -2.6053634859        2.9891378418  CLST      33              1.0000000000
       162        33  DCM       H1              0.8187491164       -2.1630189267        3.4742216437  CLST      33              1.0000000000
       163        33  DCM       H2             -0.9626547671       -2.5581471797        3.6556059316  CLST      33              1.0000000000
       164        33  DCM       CL1             0.2600010918       -4.3142789943        2.6013250001  CLST      33              1.0000000000
       165        33  DCM       CL2            -0.4408073045       -1.7042409678        1.4904105332  CLST      33              1.0000000000
       166        34  DCM       C               1.3437264227       -1.7275923155        1.4663978170  CLST      34              1.0000000000
       167        34  DCM       H1              1.4616420558       -0.6628628716        1.1806962192  CLST      34              1.0000000000
       168        34  DCM       H2              1.1684804295       -2.3586879608        0.5704053339  CLST      34              1.0000000000
       169        34  DCM       CL1             2.8304382087       -2.2791387637        2.2864346015  CLST      34              1.0000000000
       170        34  DCM       CL2            -0.0448068912       -1.8796695872        2.5776977988  CLST      34              1.0000000000
       171        35  DCM       C              -2.7848506075        2.3021869724        1.0781012174  CLST      35              1.0000000000
       172        35  DCM       H1             -2.1176064423        2.1168977825        1.9458449537  CLST      35              1.0000000000
       173        35  DCM       H2             -2.1987569301        2.5802519735        0.1767671938  CLST      35              1.0000000000
       174        35  DCM       CL1            -3.7105770616        0.8143802374        0.7310498380  CLST      35              1.0000000000
       175        35  DCM       CL2            -3.9103393933        3.6312564891        1.4773033232  CLST      35              1.0000000000
       176        36  DCM       C              -0.3423228314        1.6912980238        2.7972023665  CLST      36              1.0000000000
       177        36  DCM       H1             -0.6091012811        2.7618711307        2.9223529426  CLST      36              1.0000000000
       178        36  DCM       H2              0.6637391980        1.4795900958        3.2171820724  CLST      36              1.0000000000
       179        36  DCM       CL1            -1.5541274522        0.6853851767        3.6450223485  CLST      36              1.0000000000
       180        36  DCM       CL2            -0.3400965731        1.2950384494        1.0545687616  CLST      36              1.0000000000
       181        37  DCM       C              -0.7647658445        1.2795684320       -2.3470448675  CLST      37              1.0000000000
       182        37  DCM       H1              0.0208342361        0.6505310845       -2.8141171971  CLST      37              1.0000000000
       183        37  DCM       H2             -1.7295377768        0.7326058691       -2.2879652209  CLST      37              1.0000000000
       184        37  DCM       CL1            -0.2499411970        1.7294006429       -0.6977248232  CLST      37              1.0000000000
       185        37  DCM       CL2            -0.9812374985        2.7552930815       -3.3284582019  CLST      37              1.0000000000
       186        38  DCM       C              -2.5634343146       -2.2199636900        2.4333114580  CLST      38              1.0000000000
       187        38  DCM       H1             -2.7833880339       -3.3052764490        2.3533819446  CLST      38              1.0000000000
       188        38  DCM       H2             -1.4975138254       -2.0120371550        2.2073025605  CLST      38              1.0000000000
       189        38  DCM       CL1            -3.5876180876       -1.3286423229        1.2776102151  CLST      38              1.0000000000
       190        38  DCM       CL2            -2.9217864607       -1.6737004954        4.0927011755  CLST      38              1.0000000000
       191        39  DCM       C              -1.4278249139       -2.8932631129       -0.8770179845  CLST      39              1.0000000000
       192        39  DCM       H1             -0.3610943342       -2.7680901726       -0.5952813371  CLST      39              1.0000000000
       193        39  DCM       H2             -1.5441791955       -2.9670706690       -1.9777886099  CLST      39              1.0000000000
       194        39  DCM       CL1            -2.0620118117       -4.3873961251       -0.1345048110  CLST      39              1.0000000000
       195        39  DCM       CL2            -2.3509006441       -1.4857672089       -0.2858071544  CLST      39              1.0000000000
       196        40  DCM       C              -0.8567459227        3.2588838483       -0.2218849144  CLST      40              1.0000000000
       197        40  DCM       H1              0.0363822790        3.8287408129       -0.5530516193  CLST      40              1.0000000000
       198        40  DCM       H2             -1.7584335625        3.5678092359       -0.7909955713  CLST      40              1.0000000000
       199        40  DCM       CL1            -0.5662615131        1.5174043008       -0.4868493032  CLST      40              1.0000000000
       200        40  DCM       CL2            -1.1317728213        3.5685341520        1.5153450268  CLST      40              1.0000000000
       201        41  DCM       C              -0.0220194252       -0.3293493735       -0.8791341059  CLST      41              1.0000000000
       202        41  DCM       H1              0.2203609717        0.6106946277       -0.3395732165  CLST      41              1.0000000000
       203        41  DCM       H2              0.0966489750       -0.2014943763       -1.9761738260  CLST      41              1.0000000000
       204        41  DCM       CL1             1.0770356450       -1.6244768799       -0.3195977826  CLST      41              1.0000000000
       205        41  DCM       CL2            -1.7160457558       -0.7787962223       -0.5275002263  CLST      41              1.0000000000
       206        42  DCM       C               0.4771027107        3.0605299322        2.7123856109  CLST      42              1.0000000000
       207        42  DCM       H1             -0.5075928236        2.5664221746        2.5809757718  CLST      42              1.0000000000
       208        42  DCM       H2              0.4130144802        4.1414162756        2.4705528681  CLST      42              1.0000000000
       209        42  DCM       CL1             1.6685517664        2.2938273261        1.6262903639  CLST      42              1.0000000000
       210        42  DCM       CL2             0.9982751876        2.8719767794        4.4101622149  CLST      42              1.0000000000
       211        43  DCM       C               1.3440265696        2.3947132709        2.5398154382  CLST      43              1.0000000000
       212        43  DCM       H1              2.4423471662        2.2917124703        2.4095454082  CLST      43              1.0000000000
       213        43  DCM       H2              0.9074943927        3.0491895585        1.7559108141  CLST      43              1.0000000000
       214        43  DCM       CL1             0.5920945401        0.7763614417        2.4313946819  CLST      43              1.0000000000
       215        43  DCM       CL2             1.0124679104        3.1095032079        4.1447846529  CLST      43              1.0000000000
       216        44  DCM       C              -1.4830060601        0.9686633350       -1.1051614870  CLST      44              1.0000000000
       217        44  DCM       H1             -0.8419886630        1.0703562713       -2.0048432782  CLST      44              1.0000000000
       218        44  DCM       H2             -1.0188344993        0.2921660356       -0.3593506560  CLST      44              1.0000000000
       219        44  DCM       CL1            -1.7083556956        2.5755551007       -0.3605399260  CLST      44              1.0000000000
       220        44  DCM       CL2            -3.0611440944        0.2933607676       -1.5942200937  CLST      44              1.0000000000
       221        45  DCM       C               0.3107845113        2.7270260623        0.8511840619  CLST      45              1.0000000000
       222        45  DCM       H1             -0.5913493321        3.2421899135        0.4602369991  CLST      45              1.0000000000
       223        45  DCM       H2              1.0958008475        2.6498699869        0.0697590547  CLST      45              1.0000000000
       224        45  DCM       CL1             0.9560359788        3.6553975390        2.2353618842  CLST      45              1.0000000000
       225        45  DCM       CL2            -0.1395308168        1.0821438090        1.3865023018  CLST      45              1.0000000000
       226        46  DCM       C              -2.2350584823        0.8415147199        0.2516447002  CLST      46              1.0000000000
       227        46  DCM       H1             -1.9549371633        1.4543471566       -0.6307066661  CLST      46              1.0000000000
       228        46  DCM       H2             -1.7329153839        1.2092784152        1.1707252367  CLST      46              1.0000000000
       229        46  DCM       CL1            -4.0050471958        0.9326820933        0.4790550722  CLST      46              1.0000000000
       230        46  DCM       CL2            -1.7430487795       -0.8526559089       -0.0323311147  CLST      46              1.0000000000
       231        47  DCM       C               1.9785722452        2.8364851500        1.5276272256  CLST      47              1.0000000000
       232        47  DCM       H1              2.7597713574        2.5911512573        0.7786768600  CLST      47              1.0000000000
       233        47  DCM       H2              2.3691074744        2.7352503323        2.5618070488  CLST      47              1.0000000000
       234        47  DCM       CL1             0.5921853232        1.7302747957        1.3102645995  CLST      47              1.0000000000
       235        47  DCM       CL2             1.4460007455        4.5193444280        1.2754663367  CLST      47              1.0000000000
       236        48  DCM       C               1.0332488501       -3.2785202214        1.6329158435  CLST      48              1.0000000000
       237        48  DCM       H1              1.0003349440       -4.1954695308        1.0070503094  CLST      48              1.0000000000
       238        48  DCM       H2              2.0777122434       -2.9225747423        1.7538831695  CLST      48              1.0000000000
       239        48  DCM       CL1             0.0636725197       -1.9990429401        0.8455487128  CLST      48              1.0000000000
       240        48  DCM       CL2             0.3507600108       -3.6470505909        3.2438161484  CLST      48              1.0000000000
       241        49  DCM       C              -2.9760180259       -0.8880793409        1.8714665639  CLST      49              1.0000000000
       242        49  DCM       H1             -3.5524368543        0.0559573738        1.9731651024  CLST      49              1.0000000000
       243        49  DCM       H2             -2.3195740062       -1.0518673707        2.7521191005  CLST      49              1.0000000000
       244        49  DCM       CL1            -4.1184223516       -2.2562859010        1.7362029308  CLST      49              1.0000000000
       245        49  DCM       CL2            -1.9630249739       -0.7951547632        0.4010257370  CLST      49              1.0000000000
       246        50  DCM       C               1.0802922788       -2.2076170884       -0.7955570507  CLST      50              1.0000000000
       247        50  DCM       H1              0.9340462285       -2.3239174190       -1.8891130730  CLST      50              1.0000000000
       248        50  DCM       H2              2.1219199928       -2.4520486817       -0.5066486322  CLST      50              1.0000000000
       249        50  DCM       CL1            -0.0256817005       -3.3169508998        0.0671281140  CLST      50              1.0000000000
       250        50  DCM       CL2             0.7413856047       -0.5125494611       -0.3432667810  CLST      50              1.0000000000
       251        51  DCM       C               2.2878499991       -1.3330486469       -1.8963788956  CLST      51              1.0000000000
       252        51  DCM       H1              1.9399263542       -1.9911733074       -1.0727794276  CLST      51              1.0000000000
       253        51  DCM       H2              2.5396065250       -1.9246702627       -2.8012547577  CLST      51              1.0000000000
       254        51  DCM       CL1             0.9901439439       -0.1761383344       -2.3097355465  CLST      51              1.0000000000
       255        51  DCM       CL2             3.7426317065       -0.4452519272       -1.3563434831  CLST      51              1.0000000000
       256        52  DCM       C              -0.0131716634        0.6042829604       -1.4038523291  CLST      52              1.0000000000
       257        52  DCM       H1             -0.9005202058       -0.0398651546       -1.2290503026  CLST      52              1.0000000000
       258        52  DCM       H2              0.3734337750        1.0206408802       -0.4519527986  CLST      52              1.0000000000
       259        52  DCM       CL1            -0.4665693682        1.9606748681       -2.4687034347  CLST      52              1.0000000000
       260        52  DCM       CL2             1.2717514487       -0.3620108713       -2.1788844970  CLST      52              1.0000000000
       261        53  DCM       C              -0.8439743372       -1.1460236926        2.5114474803  CLST      53              1.0000000000
       262        53  DCM       H1             -1.0124106506       -2.2404549564        2.5755390348  CLST      53              1.0000000000
       263        53  DCM       H2             -1.4851807783       -0.6902531091        1.7281557319  CLST      53              1.0000000000
       264        53  DCM       CL1            -1.2319424065       -0.4031876301        4.0892302170  CLST      53              1.0000000000
       265        53  DCM       CL2             0.8702524889       -0.8489463781        2.1098502378  CLST      53              1.0000000000
       266        54  DCM       C               1.9777288212        1.0627505096        2.9056117122  CLST      54              1.0000000000
       267        54  DCM       H1              2.7311727451        0.2756850039        3.1174439234  CLST      54              1.0000000000
       268        54  DCM       H2              2.4654637818        2.0396838485        2.7114031398  CLST      54              1.0000000000
       269        54  DCM       CL1             1.0311525520        0.6007876035        1.4625658645  CLST      54              1.0000000000
       270        54  DCM       CL2             0.8988801894        1.2239890686        4.3202408509  CLST      54              1.0000000000
       271        55  DCM       C               3.4800490610       -1.4862629953        1.4106517242  CLST      55              1.0000000000
       272        55  DCM       H1              2.5563921188       -1.5340460678        2.0250543296  CLST      55              1.0000000000
       273        55  DCM       H2              3.2590698336       -1.6888378867        0.3419263463  CLST      55              1.0000000000
       274        55  DCM       CL1             4.1931387262        0.1464992185        1.5599120198  CLST      55              1.0000000000
       275        55  DCM       CL2             4.6370377494       -2.7112040536        2.0086600785  CLST      55              1.0000000000
       276        56  DCM       C              -2.0908160369       -3.2870780142        0.6063497065  CLST      56              1.0000000000
       277        56  DCM       H1             -1.6199400948       -2.5138868630        1.2510473310  CLST      56              1.0000000000
       278        56  DCM       H2             -2.9015595691       -3.8172169195        1.1469295182  CLST      56              1.0000000000
       279        56  DCM       CL1            -2.7748187871       -2.4973099044       -0.8428628501  CLST      56              1.0000000000
       280        56  DCM       CL2            -0.8450289934       -4.4695039245        0.1124799377  CLST      56              1.0000000000
       281        57  DCM       C               1.0033229494       -1.5888522454        0.3762994731  CLST      57              1.0000000000
       282        57  DCM       H1              0.3561730594       -0.9149903245       -0.2224735027  CLST      57              1.0000000000
       283        57  DCM       H2              1.3717827992       -2.4344297518       -0.2416419253  CLST      57              1.0000000000
       284        57  DCM       CL1             0.0676688220       -2.2375421781        1.7531784257  CLST      57              1.0000000000
       285        57  DCM       CL2             2.3951712008       -0.6544019837        0.9879306090  CLST      57              1.0000000000
       286        58  DCM       C               0.7184724490       -1.5161992033        1.1232495066  CLST      58              1.0000000000
       287        58  DCM       H1              1.6502082197       -2.0979876744        1.2867514536  CLST      58              1.0000000000
       288        58  DCM       H2              0.2184522185       -1.2806225661        2.0862901229  CLST      58              1.0000000000
       289        58  DCM       CL1            -0.3931353576       -2.4817705994        0.1133506723  CLST      58              1.0000000000
       290        58  DCM       CL2             1.1222763690        0.0109371022        0.2886229557  CLST      58              1.0000000000
       291        59  DCM       C               0.0791826741       -0.2791753625       -0.2979278406  CLST      59              1.0000000000
       292        59  DCM       H1             -0.4041765105       -1.1750408270        0.1414298542  CLST      59              1.0000000000
       293        59  DCM       H2             -0.5667211809        0.6168857156       -0.1922880560  CLST      59              1.0000000000
       294        59  DCM       CL1             1.6197753700        0.0209035570        0.5450597287  CLST      59              1.0000000000
       295        59  DCM       CL2             0.3920403962       -0.5840256092       -2.0278286665  CLST      59              1.0000000000
       296        60  DCM       C              -2.6637720259        1.1396598509        1.9876148645  CLST      60              1.0000000000
       297        60  DCM       H1             -1.6989504058        0.6100297825        1.8407352622  CLST      60              1.0000000000
       298        60  DCM       H2             -3.4220824912        0.7925055227        1.2551967347  CLST      60              1.0000000000
       299        60  DCM       CL1            -2.4085594303        2.8954161363        1.7730775749  CLST      60              1.0000000000
       300        60  DCM       CL2            -3.2591180945        0.8113021970        3.6398359980  CLST      60              1.0000000000
       301        61  DCM       C              -1.7398369812        1.0900740088        2.4486495398  CLST      61              1.0000000000
       302        61  DCM       H1             -0.8733987019        1.2804111167        1.7821710260  CLST      61              1.0000000000
       303        61  DCM       H2             -1.6677176698        0.0851357816        2.9160530251  CLST      61              1.0000000000
       304        61  DCM       CL1            -1.7712184172        2.3313954522        3.7339404226  CLST      61              1.0000000000
       305        61  DCM       CL2            -3.2400032409        1.1798224750        1.4823690042  CLST      61              1.0000000000
       306        62  DCM       C               0.5142401242       -1.9208343090       -0.7461021176  CLST      62              1.0000000000
       307        62  DCM       H1             -0.5766910014       -1.9058230338       -0.9532815219  CLST      62              1.0000000000
       308        62  DCM       H2              1.0136904298       -2.7428610647       -1.2995610994  CLST      62              1.0000000000
       309        62  DCM       CL1             1.2219081501       -0.3623929013       -1.2543525712  CLST      62              1.0000000000
       310        62  DCM       CL2             0.7752459708       -2.1570026501        1.0053168913  CLST      62              1.0000000000
       311        63  DCM       C               1.6875741368       -3.3077299150       -0.9455011196  CLST      63              1.0000000000
       312        63  DCM       H1              2.2677898226       -4.1236155404       -1.4244730094  CLST      63              1.0000000000
       313        63  DCM       H2              1.8779124720       -2.3347908453       -1.4454823607  CLST      63              1.0000000000
       314        63  DCM       CL1             2.1748284128       -3.1872856584        0.7684894730  CLST      63              1.0000000000
       315        63  DCM       CL2            -0.0535302066       -3.6904858945       -1.0576048126  CLST      63              1.0000000000
       316        64  DCM       C               0.3479506485       -1.2087520461        0.3749408218  CLST      64              1.0000000000
       317        64  DCM       H1             -0.1467503674       -1.8124913099       -0.4119719039  CLST      64              1.0000000000
       318        64  DCM       H2              0.4433451195       -1.7847557074        1.3182377378  CLST      64              1.0000000000
       319        64  DCM       CL1             1.9731588541       -0.7403752724       -0.1990157124  CLST      64              1.0000000000
       320        64  DCM       CL2            -0.6311706981        0.2488953272        0.6852808684  CLST      64              1.0000000000
       321        65  DCM       C               0.7141815002       -2.2601684578       -2.8984725786  CLST      65              1.0000000000
       322        65  DCM       H1              0.2056709241       -2.4216445347       -3.8720043381  CLST      65              1.0000000000
       323        65  DCM       H2              0.1376582133       -1.5568271557       -2.2628920109  CLST      65              1.0000000000
       324        65  DCM       CL1             0.8524396544       -3.8194212575       -2.0415571887  CLST      65              1.0000000000
       325        65  DCM       CL2             2.3416800408       -1.5866760803       -3.1964299054  CLST      65              1.0000000000
       326        66  DCM       C              -0.3320407457        1.6467485931        1.7855847768  CLST      66              1.0000000000
       327        66  DCM       H1             -0.2375894171        2.5568399241        1.1560740134  CLST      66              1.0000000000
       328        66  DCM       H2             -0.0121637875        0.7401604484        1.2295190820  CLST      66              1.0000000000
       329        66  DCM       CL1             0.6983929864        1.8332484326        3.2348987911  CLST      66              1.0000000000
       330        66  DCM       CL2            -2.0405391014        1.4546072610        2.2767310074  CLST      66              1.0000000000
       331        67  DCM       C              -2.2377094315        2.3315273635       -1.1260242677  CLST      67              1.0000000000
       332        67  DCM       H1             -2.2183417915        1.5069300852       -1.8696273299  CLST      67              1.0000000000
       333        67  DCM       H2             -2.6083371570        3.2741890829       -1.5812891264  CLST      67              1.0000000000
       334        67  DCM       CL1            -3.3190875804        1.8740758341        0.2217440450  CLST      67              1.0000000000
       335        67  DCM       CL2            -0.5813084160        2.5982673830       -0.5117126243  CLST      67              1.0000000000
       336        68  DCM       C               0.7175240405       -0.0163042065        3.1635334854  CLST      68              1.0000000000
       337        68  DCM       H1              0.8386150153        0.2871284113        2.1024593406  CLST      68              1.0000000000
       338        68  DCM       H2             -0.2146358987        0.4031151512        3.5968461273  CLST      68              1.0000000000
       339        68  DCM       CL1             0.6522509943       -1.8001478235        3.2571201068  CLST      68              1.0000000000
       340        68  DCM       CL2             2.1131650141        0.5878067925        4.0993737756  CLST      68              1.0000000000
       341        69  DCM       C              -1.3715094773        2.6857510685       -0.9651872711  CLST      69              1.0000000000
       342        69  DCM       H1             -1.0131175216        3.6585839424       -0.5700897789  CLST      69              1.0000000000
       343        69  DCM       H2             -0.6271521114        2.2330801646       -1.6536498461  CLST      69              1.0000000000
       344        69  DCM       CL1            -1.6453973505        1.5849701619        0.4126227955  CLST      69              1.0000000000
       345        69  DCM       CL2            -2.8965452889        2.9448038947       -1.8549234868  CLST      69              1.0000000000
       346        70  DCM       C               2.3231061458       -0.2193799548       -1.7381945515  CLST      70              1.0000000000
       347        70  DCM       H1              2.2050197345       -0.1393402641       -2.8394284909  CLST      70              1.0000000000
       348        70  DCM       H2              2.7707524395       -1.1952945194       -1.4595656402  CLST      70              1.0000000000
       349        70  DCM       CL1             0.7186175733       -0.0687741149       -0.9670379246  CLST      70              1.0000000000
       350        70  DCM       CL2             3.3896547128        1.0926763403       -1.1629127015  CLST      70              1.0000000000
       351        71  DCM       C              -2.5199268152       -0.3044596490        0.2199317380  CLST      71              1.0000000000
       352        71  DCM       H1             -3.4978213433       -0.6302308155       -0.1913001638  CLST      71              1.0000000000
       353        71  DCM       H2             -2.0896126455        0.5233370186       -0.3830037872  CLST      71              1.0000000000
       354        71  DCM       CL1            -1.3861672949       -1.6858716666        0.2064851167  CLST      71              1.0000000000
       355        71  DCM       CL2            -2.7626126082        0.2592651350        1.8958877810  CLST      71              1.0000000000
       356        72  DCM       C               2.1197234583        2.3479748806       -0.5972014297  CLST      72              1.0000000000
       357        72  DCM       H1              2.0931099940        2.3787475689        0.5125483123  CLST      72              1.0000000000
       358        72  DCM       H2              1.9162005661        3.3496703089       -1.0282797648  CLST      72              1.0000000000
       359        72  DCM       CL1             3.7397800240        1.8101708060       -1.1287895486  CLST      72              1.0000000000
       360        72  DCM       CL2             0.8737004197        1.2074812003       -1.1814526290  CLST      72              1.0000000000
       361        73  DCM       C              -0.5990004679        0.1622995144        2.8606622057  CLST      73              1.0000000000
       362        73  DCM       H1             -1.0179563281        0.0332605033        1.8432304983  CLST      73              1.0000000000
       363        73  DCM       H2             -0.2376632746        1.2007029125        3.0144264015  CLST      73              1.0000000000
       364        73  DCM       CL1            -1.8785497153       -0.1982233550        4.0549627780  CLST      73              1.0000000000
       365        73  DCM       CL2             0.7673913836       -0.9698930920        3.0631728124  CLST      73              1.0000000000
       366        74  DCM       C              -0.8364449277       -1.9962250664       -1.5126871295  CLST      74              1.0000000000
       367        74  DCM       H1             -0.9451780423       -2.9164831343       -0.9029188046  CLST      74              1.0000000000
       368        74  DCM       H2             -0.2773718164       -1.2148167143       -0.9593234530  CLST      74              1.0000000000
       369        74  DCM       CL1             0.0609770316       -2.3825232231       -3.0056281060  CLST      74              1.0000000000
       370        74  DCM       CL2            -2.4582502072       -1.3711229264       -1.9222444283  CLST      74              1.0000000000
       371        75  DCM       C               2.2989079406        0.8828361444        2.2962894806  CLST      75              1.0000000000
       372        75  DCM       H1              2.3169327877        1.9805578414        2.1328558847  CLST      75              1.0000000000
       373        75  DCM       H2              2.0288687681        0.6400137162        3.3459240756  CLST      75              1.0000000000
       374        75  DCM       CL1             1.0927820818        0.1504307548        1.2003724203  CLST      75              1.0000000000
       375        75  DCM       CL2             3.9177414406        0.2139224309        1.9420388189  CLST      75              1.0000000000
       376        76  DCM       C               0.2424540706        2.6532050148       -2.6672653900  CLST      76              1.0000000000
       377        76  DCM       H1              1.1792645919        2.3964467893       -2.1304887385  CLST      76              1.0000000000
       378        76  DCM       H2              0.4596044136        3.0097459379       -3.6957255296  CLST      76              1.0000000000
       379        76  DCM       CL1            -0.7798160800        1.1924355476       -2.7675487818  CLST      76              1.0000000000
       380        76  DCM       CL2            -0.6156119382        3.9394416968       -1.7674342545  CLST      76              1.0000000000
       381        77  DCM       C               1.6887155764        1.1828233648       -3.0093024337  CLST      77              1.0000000000
       382        77  DCM       H1              1.4672811908        1.7976908364       -3.9068330610  CLST      77              1.0000000000
       383        77  DCM       H2              0.7907678382        1.0817140117       -2.3637333904  CLST      77              1.0000000000
       384        77  DCM       CL1             2.2169656899       -0.4419191116       -3.5340359084  CLST      77              1.0000000000
       385        77  DCM       CL2             2.9936729736        1.9695590773       -2.0752079368  CLST      77              1.0000000000
       386        78  DCM       C               0.5468340243        2.8388370392        1.4079339404  CLST      78              1.0000000000
       387        78  DCM       H1              0.5320355626        2.7643943983        2.5155242517  CLST      78              1.0000000000
       388        78  DCM       H2              0.2619260402        1.8723279753        0.9405748831  CLST      78              1.0000000000
       389        78  DCM       CL1            -0.6085288038        4.1003001943        0.8866310367  CLST      78              1.0000000000
       390        78  DCM       CL2             2.1965879739        3.2760218093        0.8775906376  CLST      78              1.0000000000
       391        79  DCM       C               3.1203000198       -0.4875451458        2.8701471697  CLST      79              1.0000000000
       392        79  DCM       H1              3.0629404078       -0.9252026677        1.8510194217  CLST      79              1.0000000000
       393        79  DCM       H2              4.0869523653       -0.7346770237        3.3556725197  CLST      79              1.0000000000
       394        79  DCM       CL1             2.9666977269        1.2894912960        2.7510918579  CLST      79              1.0000000000
       395        79  DCM       CL2             1.7916182359       -1.1507937087        3.8636991030  CLST      79              1.0000000000
       396        80  DCM       C              -0.7835471104        2.7274755752       -0.8833211687  CLST      80              1.0000000000
       397        80  DCM       H1             -0.8185035991        1.6207842374       -0.9596966083  CLST      80              1.0000000000
       398        80  DCM       H2             -1.3936144746        3.2060174049       -1.6783502155  CLST      80              1.0000000000
       399        80  DCM       CL1             0.9118511871        3.2704471615       -1.0436692254  CLST      80              1.0000000000
       400        80  DCM       CL2            -1.4330469180        3.2117924214        0.7072243843  CLST      80              1.0000000000
       401        81  DCM       C               1.4277760170       -1.0581587054        0.3315840147  CLST      81              1.0000000000
       402        81  DCM       H1              1.7629491695       -0.4570441789        1.2030545145  CLST      81              1.0000000000
       403        81  DCM       H2              0.4390623770       -1.5250335763        0.5248898574  CLST      81              1.0000000000
       404        81  DCM       CL1             1.2963464988        0.0101308635       -1.0930861242  CLST      81              1.0000000000
       405        81  DCM       CL2             2.6284545570       -2.3429696534        0.0122275490  CLST      81              1.0000000000
       406        82  DCM       C               1.9178486988       -1.6624875103       -2.9762268806  CLST      82              1.0000000000
       407        82  DCM       H1              1.8430140326       -1.8947675230       -4.0594304006  CLST      82              1.0000000000
       408        82  DCM       H2              0.9147298562       -1.6564697749       -2.4989823900  CLST      82              1.0000000000
       409        82  DCM       CL1             2.9328764326       -2.9030148216       -2.1845960913  CLST      82              1.0000000000
       410        82  DCM       CL2             2.6643141151       -0.0494616383       -2.7776983580  CLST      82              1.0000000000
       411        83  DCM       C              -1.7832309906       -2.1866402814        2.3359910434  CLST      83              1.0000000000
       412        83  DCM       H1             -2.7832162945       -2.2057833893        1.8557193356  CLST      83              1.0000000000
       413        83  DCM       H2             -1.1897018949       -1.3185240768        1.9840808730  CLST      83              1.0000000000
       414        83  DCM       CL1            -1.9970243684       -2.0779395561        4.1066674312  CLST      83              1.0000000000
       415        83  DCM       CL2            -0.9087326555       -3.6852269746        1.9161065327  CLST      83              1.0000000000
       416        84  DCM       C               2.3518039480        1.1735941298        0.7801259470  CLST      84              1.0000000000
       417        84  DCM       H1              3.4156855445        1.4463683607        0.9438154250  CLST      84              1.0000000000
       418        84  DCM       H2              1.6768428441        2.0142896717        1.0468538471  CLST      84              1.0000000000
       419        84  DCM       CL1             2.1167353390        0.7652788560       -0.9440756234  CLST      84              1.0000000000
       420        84  DCM       CL2             1.9505159589       -0.2387044073        1.7997934798  CLST      84              1.0000000000
       421        85  DCM       C              -2.6220800072       -1.3989976996       -2.7797325233  CLST      85              1.0000000000
       422        85  DCM       H1             -3.3894709085       -0.6431421683       -3.0497163508  CLST      85              1.0000000000
       423        85  DCM       H2             -2.0945170642       -1.7741455074       -3.6817670382  CLST      85              1.0000000000
       424        85  DCM       CL1            -1.4298977050       -0.6525732930       -1.6759693536  CLST      85              1.0000000000
       425        85  DCM       CL2            -3.4268460926       -2.7708582314       -1.9641502516  CLST      85              1.0000000000
       426        86  DCM       C              -1.5385814736        1.6319694274        0.8744802877  CLST      86              1.0000000000
       427        86  DCM       H1             -0.9121345244        2.2125799035        1.5835306966  CLST      86              1.0000000000
       428        86  DCM       H2             -1.1340190631        1.6967293156       -0.1580674596  CLST      86              1.0000000000
       429        86  DCM       CL1            -1.5622549323       -0.0794492045        1.3858275988  CLST      86              1.0000000000
       430        86  DCM       CL2            -3.1990856974        2.2864204497        0.8944295212  CLST      86              1.0000000000
       431        87  DCM       C              -1.6300710182        0.7968963034       -1.9312440682  CLST      87              1.0000000000
       432        87  DCM       H1             -1.6241356006        0.6988190738       -0.8249864144  CLST      87              1.0000000000
       433        87  DCM       H2             -0.8762217971        0.1287100400       -2.3991839432  CLST      87              1.0000000000
       434        87  DCM       CL1            -3.2507108435        0.3706268837       -2.5464198712  CLST      87              1.0000000000
       435        87  DCM       CL2            -1.2542084581        2.4853247231       -2.3645702566  CLST      87              1.0000000000
       436        88  DCM       C               0.5576977619        0.6067880598       -2.7069114235  CLST      88              1.0000000000
       437        88  DCM       H1              0.4027670142       -0.4887024634       -2.8066048892  CLST      88              1.0000000000
       438        88  DCM       H2              1.6391442339        0.8534197143       -2.6618478276  CLST      88              1.0000000000
       439        88  DCM       CL1            -0.1713825770        1.4263210919       -4.1171082193  CLST      88              1.0000000000
       440        88  DCM       CL2            -0.2339673791        1.1761320203       -1.2090140981  CLST      88              1.0000000000
       441        89  DCM       C               2.4015237136       -0.9151717035       -0.8350252030  CLST      89              1.0000000000
       442        89  DCM       H1              1.7406226839       -0.4085984036       -1.5695316171  CLST      89              1.0000000000
       443        89  DCM       H2              2.0643605205       -1.9556305201       -0.6540656517  CLST      89              1.0000000000
       444        89  DCM       CL1             4.0712872896       -0.9497169982       -1.4720512049  CLST      89              1.0000000000
       445        89  DCM       CL2             2.3558138897       -0.0232696799        0.7121826771  CLST      89              1.0000000000
       446        90  DCM       C               2.8093067954        2.7678569594        2.6966103185  CLST      90              1.0000000000
       447        90  DCM       H1              3.3158876310        1.9770948314        3.2898825447  CLST      90              1.0000000000
       448        90  DCM       H2              2.6860434982        3.6954494256        3.2945578620  CLST      90              1.0000000000
       449        90  DCM       CL1             1.1976277866        2.1784260817        2.1968270825  CLST      90              1.0000000000
       450        90  DCM       CL2             3.7915786121        3.1333747804        1.2481416165  CLST      90              1.0000000000
       451        91  DCM       C              -2.5277220551       -1.5431839398        0.7391150792  CLST      91              1.0000000000
       452        91  DCM       H1             -2.6019755709       -2.6121552747        0.4465208052  CLST      91              1.0000000000
       453        91  DCM       H2             -3.0606335315       -0.8922521020        0.0140737011  CLST      91              1.0000000000
       454        91  DCM       CL1            -3.2619263872       -1.3320939111        2.3559425947  CLST      91              1.0000000000
       455        91  DCM       CL2            -0.8028482808       -1.0710607845        0.7841658247  CLST      91              1.0000000000
       456        92  DCM       C               2.4387907645       -0.3970314783        0.1079475849  CLST      92              1.0000000000
       457        92  DCM       H1              3.2151868124       -0.4559227877        0.8979214697  CLST      92              1.0000000000
       458        92  DCM       H2              2.7037187753       -1.0472790241       -0.7508657228  CLST      92              1.0000000000
       459        92  DCM       CL1             0.8728472977       -0.9333728831        0.7814898452  CLST      92              1.0000000000
       460        92  DCM       CL2             2.3065555195        1.2934788231       -0.4555266190  CLST      92              1.0000000000
       461        93  DCM       C               0.3659017605        2.3537476702       -1.6206131548  CLST      93              1.0000000000
       462        93  DCM       H1              0.0607058858        1.2864145295       -1.5922832830  CLST      93              1.0000000000
       463        93  DCM       H2              0.1560256468        2.8544966691       -0.6517388617  CLST      93              1.0000000000
       464        93  DCM       CL1             2.1166778386        2.4513589444       -1.9649853529  CLST      93              1.0000000000
       465        93  DCM       CL2            -0.5463228167        3.1842287139       -2.9113015553  CLST      93              1.0000000000
       466        94  DCM       C               1.4567302114       -2.7659054228        2.4117474878  CLST      94              1.0000000000
       467        94  DCM       H1              2.1621490807       -3.5679049330        2.1066885813  CLST      94              1.0000000000
       468        94  DCM       H2              1.2487773689       -2.8109754440        3.5015991450  CLST      94              1.0000000000
       469        94  DCM       CL1             2.1773845837       -1.1778050805        2.0212016692  CLST      94              1.0000000000
       470        94  DCM       CL2            -0.0768053153       -2.9681290463        1.5158095160  CLST      94              1.0000000000
       471        95  DCM       C               0.7654485361        1.8942584947       -1.8864780209  CLST      95              1.0000000000
       472        95  DCM       H1              0.1100087503        2.6972949253       -1.4927615464  CLST      95              1.0000000000
       473        95  DCM       H2              1.7589791223        1.9140173614       -1.3903312672  CLST      95              1.0000000000
       474        95  DCM       CL1            -0.0136952654        0.3144093293       -1.5889419550  CLST      95              1.0000000000
       475        95  DCM       CL2             0.9830154727        2.1378237901       -3.6414337913  CLST      95              1.0000000000
       476        96  DCM       C               2.3521730872        0.1876456121       -1.7828880154  CLST      96              1.0000000000
       477        96  DCM       H1              1.8032757078        1.0947430040       -1.4536933078  CLST      96              1.0000000000
       478        96  DCM       H2              3.0832649463        0.4348383861       -2.5807899698  CLST      96              1.0000000000
       479        96  DCM       CL1             1.1818568596       -1.0064276802       -2.4134741541  CLST      96              1.0000000000
       480        96  DCM       CL2             3.2275298837       -0.4993125890       -0.3851799489  CLST      96              1.0000000000
       481        97  DCM       C              -2.7696218889        0.4719316302        1.0353249116  CLST      97              1.0000000000
       482        97  DCM       H1             -2.9738988444       -0.0679067672        1.9840481036  CLST      97              1.0000000000
       483        97  DCM       H2             -3.0629890888        1.5396993365        1.1148058654  CLST      97              1.0000000000
       484        97  DCM       CL1            -1.0246741393        0.3644875484        0.6624792124  CLST      97              1.0000000000
       485        97  DCM       CL2            -3.7148271816       -0.2846953556       -0.2771343587  CLST      97              1.0000000000
       486        98  DCM       C               2.6613590927       -1.5791737395        0.7679059547  CLST      98              1.0000000000
       487        98  DCM       H1              2.3681421701       -1.1503859605       -0.2129954738  CLST      98              1.0000000000
       488        98  DCM       H2              3.3266232636       -0.8872295153        1.3233253179  CLST      98              1.0000000000
       489        98  DCM       CL1             3.5316025411       -3.1157908913        0.5010974766  CLST      98              1.0000000000
       490        98  DCM       CL2             1.1885167950       -1.8688657442        1.7357190871  CLST      98              1.0000000000
