* MLpot PhysNet steepest descent (USER / MMML)
*
        150  EXT
         1         1  DCM   C            12.7153643116       -3.2571959639       -3.4123174661  CLST           1          1.0000000000
         2         1  DCM   H1           13.5209347306       -2.5073079784       -3.4285543336  CLST           1          1.0000000000
         3         1  DCM   H2           12.0970113373       -3.1623705755       -2.5081893197  CLST           1          1.0000000000
         4         1  DCM   CL1          11.6812273273       -3.0267566496       -4.8490731149  CLST           1          1.0000000000
         5         1  DCM   CL2          13.4421556344       -4.8864581356       -3.4483979594  CLST           1          1.0000000000
         6         2  DCM   C           -10.4340831109        8.7165589440      -17.4749674360  CLST           2          1.0000000000
         7         2  DCM   H1          -10.7688403744        9.7017869900      -17.1209508945  CLST           2          1.0000000000
         8         2  DCM   H2          -10.5535514953        7.9479699088      -16.6985565284  CLST           2          1.0000000000
         9         2  DCM   CL1         -11.4034445186        8.2542128616      -18.9000121706  CLST           2          1.0000000000
        10         2  DCM   CL2          -8.7090505590        8.8203573605      -17.9245701308  CLST           2          1.0000000000
        11         3  DCM   C             3.3965029842       -3.4031096261       -4.7459435729  CLST           3          1.0000000000
        12         3  DCM   H1            3.2901020955       -4.4853835020       -4.9046494160  CLST           3          1.0000000000
        13         3  DCM   H2            4.4504407774       -3.1147846002       -4.6279443992  CLST           3          1.0000000000
        14         3  DCM   CL1           2.7172547104       -2.5432545259       -6.1547174382  CLST           3          1.0000000000
        15         3  DCM   CL2           2.5037454165       -2.9456301950       -3.2687311011  CLST           3          1.0000000000
        16         4  DCM   C           -10.1788668655      -10.7036697387      -17.1170542207  CLST           4          1.0000000000
        17         4  DCM   H1          -10.4841082347      -11.7218884843      -17.3957881631  CLST           4          1.0000000000
        18         4  DCM   H2           -9.1333560200      -10.6763480532      -16.7787894606  CLST           4          1.0000000000
        19         4  DCM   CL1         -10.3540731932       -9.6378513144      -18.5383969235  CLST           4          1.0000000000
        20         4  DCM   CL2         -11.2306181770      -10.1291360882      -15.7949003969  CLST           4          1.0000000000
        21         5  DCM   C             7.5415058764        5.8781641477        3.0412308679  CLST           5          1.0000000000
        22         5  DCM   H1            8.3078600281        6.4241941561        2.4736409613  CLST           5          1.0000000000
        23         5  DCM   H2            6.5970105868        5.8131306983        2.4827734892  CLST           5          1.0000000000
        24         5  DCM   CL1           8.1345051058        4.2259710662        3.3678346912  CLST           5          1.0000000000
        25         5  DCM   CL2           7.2460508151        6.7295712371        4.5826249113  CLST           5          1.0000000000
        26         6  DCM   C           -10.7178717000      -16.5689397445        3.6355231719  CLST           6          1.0000000000
        27         6  DCM   H1          -11.5575747095      -16.7605625113        4.3175690226  CLST           6          1.0000000000
        28         6  DCM   H2          -10.5774574551      -17.3982622312        2.9280645276  CLST           6          1.0000000000
        29         6  DCM   CL1         -11.0520954074      -15.0785354525        2.7133783655  CLST           6          1.0000000000
        30         6  DCM   CL2          -9.2269763613      -16.3647402388        4.5944339337  CLST           6          1.0000000000
        31         7  DCM   C             3.7713092181      -11.8856433098        3.7849869147  CLST           7          1.0000000000
        32         7  DCM   H1            4.2143044349      -12.7545056521        4.2917564680  CLST           7          1.0000000000
        33         7  DCM   H2            4.5405387847      -11.2619968573        3.3080129471  CLST           7          1.0000000000
        34         7  DCM   CL1           2.6396522251      -12.4644612299        2.5312937675  CLST           7          1.0000000000
        35         7  DCM   CL2           2.8932245537      -10.9012492431        4.9878945020  CLST           7          1.0000000000
        36         8  DCM   C            14.8542837510      -10.9756251539       -5.5669336503  CLST           8          1.0000000000
        37         8  DCM   H1           14.1000706763      -10.5428179817       -4.8946811702  CLST           8          1.0000000000
        38         8  DCM   H2           15.8021454012      -11.1586991470       -5.0423179964  CLST           8          1.0000000000
        39         8  DCM   CL1          14.2395474734      -12.5265153129       -6.2050639965  CLST           8          1.0000000000
        40         8  DCM   CL2          15.1479401619       -9.8422991426       -6.9139947759  CLST           8          1.0000000000
        41         9  DCM   C            -3.3926139717        3.2241217865       16.5719406779  CLST           9          1.0000000000
        42         9  DCM   H1           -4.6715796451        3.3531121674       16.2136835822  CLST           9          1.0000000000
        43         9  DCM   H2           -3.3611799703        2.5663722712       17.1541549392  CLST           9          1.0000000000
        44         9  DCM   CL1          -2.6727923770        2.9365948449       14.8477389360  CLST           9          1.0000000000
        45         9  DCM   CL2          -3.0604759238        4.9057734293       17.0458309768  CLST           9          1.0000000000
        46        10  DCM   C           -18.1703038548       13.4570407187        3.4899354129  CLST          10          1.0000000000
        47        10  DCM   H1          -19.1171930616       13.5526373059        4.0397823997  CLST          10          1.0000000000
        48        10  DCM   H2          -18.3167416358       12.9474720816        2.5272966493  CLST          10          1.0000000000
        49        10  DCM   CL1         -17.5086987914       15.0872124543        3.1865468380  CLST          10          1.0000000000
        50        10  DCM   CL2         -17.0223252244       12.5144310742        4.4784133710  CLST          10          1.0000000000
        51        11  DCM   C            -3.0757325437      -18.8911427758       -4.1836095828  CLST          11          1.0000000000
        52        11  DCM   H1           -2.8119159520      -18.2926501270       -3.3001861133  CLST          11          1.0000000000
        53        11  DCM   H2           -2.6056268202      -19.8842914435       -4.1510791481  CLST          11          1.0000000000
        54        11  DCM   CL1          -4.8483400749      -19.0915137076       -4.2408101018  CLST          11          1.0000000000
        55        11  DCM   CL2          -2.5162791667      -18.0362541989       -5.6475379325  CLST          11          1.0000000000
        56        12  DCM   C            11.4253225134       19.1478748271       12.8984204232  CLST          12          1.0000000000
        57        12  DCM   H1           11.3528516048       18.0597481245       13.0350275445  CLST          12          1.0000000000
        58        12  DCM   H2           12.4160790044       19.4422249986       12.5252475290  CLST          12          1.0000000000
        59        12  DCM   CL1          10.1872144287       19.6663183319       11.7214886349  CLST          12          1.0000000000
        60        12  DCM   CL2          11.1395516016       19.9468795860       14.4688232261  CLST          12          1.0000000000
        61        13  DCM   C            -3.4902619038       -4.3998435320        4.0279810676  CLST          13          1.0000000000
        62        13  DCM   H1           -2.5260111794       -4.1693153189        4.5029415176  CLST          13          1.0000000000
        63        13  DCM   H2           -3.4651152597       -5.3733018340        3.5182654081  CLST          13          1.0000000000
        64        13  DCM   CL1          -4.7575996680       -4.4366541098        5.2847210085  CLST          13          1.0000000000
        65        13  DCM   CL2          -3.8640546693       -3.1298755826        2.8300093854  CLST          13          1.0000000000
        66        14  DCM   C            -7.6674167788        9.1939805253        5.2216436627  CLST          14          1.0000000000
        67        14  DCM   H1           -6.8314914617        9.5500965443        4.6030338790  CLST          14          1.0000000000
        68        14  DCM   H2           -7.9283223021        9.9211462377        6.0032992948  CLST          14          1.0000000000
        69        14  DCM   CL1          -9.0904450121        8.9329660712        4.1770079411  CLST          14          1.0000000000
        70        14  DCM   CL2          -7.1993776954        7.6569833726        5.9990704300  CLST          14          1.0000000000
        71        15  DCM   C            -7.8401662808       -3.1235099096       -6.5023777368  CLST          15          1.0000000000
        72        15  DCM   H1           -8.7848548058       -2.5603554263       -6.4938703238  CLST          15          1.0000000000
        73        15  DCM   H2           -8.0159906752       -4.2046155968       -6.5948189926  CLST          15          1.0000000000
        74        15  DCM   CL1          -6.8557109924       -2.5768986964       -7.8879215558  CLST          15          1.0000000000
        75        15  DCM   CL2          -6.9659051275       -2.8075809292       -4.9775946427  CLST          15          1.0000000000
        76        16  DCM   C             7.8154502739       -3.2192898253        3.3937095895  CLST          16          1.0000000000
        77        16  DCM   H1            7.7652990144       -4.2826223933        3.1193076906  CLST          16          1.0000000000
        78        16  DCM   H2            8.0003770307       -2.5849692986        2.5153458790  CLST          16          1.0000000000
        79        16  DCM   CL1           6.2639151915       -2.7397709136        4.1342351805  CLST          16          1.0000000000
        80        16  DCM   CL2           9.1439547266       -2.9873534527        4.5634070703  CLST          16          1.0000000000
        81        17  DCM   C           -11.6095370999       14.5048199721       -3.0198110442  CLST          17          1.0000000000
        82        17  DCM   H1          -11.8590988153       15.5450608466       -2.7676538067  CLST          17          1.0000000000
        83        17  DCM   H2          -12.2735347756       13.7957489094       -2.5050007824  CLST          17          1.0000000000
        84        17  DCM   CL1         -11.7817801783       14.2820965827       -4.7824048101  CLST          17          1.0000000000
        85        17  DCM   CL2          -9.9240537456       14.1793287819       -2.5301559937  CLST          17          1.0000000000
        86        18  DCM   C           -17.0126099759       -3.3998244900        3.8392142060  CLST          18          1.0000000000
        87        18  DCM   H1          -16.0943500672       -2.8718306423        4.1316066440  CLST          18          1.0000000000
        88        18  DCM   H2          -17.7183343029       -3.4748602507        4.6789179142  CLST          18          1.0000000000
        89        18  DCM   CL1         -17.7923400194       -2.5045032911        2.5067269238  CLST          18          1.0000000000
        90        18  DCM   CL2         -16.5871868916       -5.0461914043        3.2945177094  CLST          18          1.0000000000
        91        19  DCM   C           -13.5435534855       -3.7895726301       -3.3752750630  CLST          19          1.0000000000
        92        19  DCM   H1          -13.7948463938       -3.4410979456       -4.3871683056  CLST          19          1.0000000000
        93        19  DCM   H2          -14.4458401077       -4.0242616815       -2.7942691809  CLST          19          1.0000000000
        94        19  DCM   CL1         -12.5395211977       -5.2610004748       -3.5017938892  CLST          19          1.0000000000
        95        19  DCM   CL2         -12.6322752606       -2.5060412673       -2.5324788864  CLST          19          1.0000000000
        96        20  DCM   C           -11.4525475131       16.3644975927        3.3505899143  CLST          20          1.0000000000
        97        20  DCM   H1          -12.0841998902       16.8828614107        2.6158067112  CLST          20          1.0000000000
        98        20  DCM   H2          -11.4871804725       16.8581965560        4.3318647897  CLST          20          1.0000000000
        99        20  DCM   CL1         -12.0318243356       14.6850563651        3.5274282433  CLST          20          1.0000000000
       100        20  DCM   CL2          -9.7671871608       16.3624496828        2.7636358460  CLST          20          1.0000000000
       101        21  DCM   C             6.3564314531        7.8021812380       11.1119749607  CLST          21          1.0000000000
       102        21  DCM   H1            5.3521596701        8.1754770629       10.8673045729  CLST          21          1.0000000000
       103        21  DCM   H2            6.4152962198        6.7095469275       11.0130847666  CLST          21          1.0000000000
       104        21  DCM   CL1           7.5359514877        8.5461964202        9.9980894152  CLST          21          1.0000000000
       105        21  DCM   CL2           6.7452861745        8.2516986531       12.7945898533  CLST          21          1.0000000000
       106        22  DCM   C             9.3501710664       -3.2744386669      -11.2120857334  CLST          22          1.0000000000
       107        22  DCM   H1            9.3183072521       -3.1016361930      -10.1275171446  CLST          22          1.0000000000
       108        22  DCM   H2            9.3450540078       -4.3473549518      -11.4496809137  CLST          22          1.0000000000
       109        22  DCM   CL1           7.9222771154       -2.5102725087      -11.9618181269  CLST          22          1.0000000000
       110        22  DCM   CL2          10.8422072846       -2.5463003587      -11.8698649242  CLST          22          1.0000000000
       111        23  DCM   C            -3.5024521059        3.3307807706       -3.5360264789  CLST          23          1.0000000000
       112        23  DCM   H1           -3.0197915635        3.3969916648       -2.6375006201  CLST          23          1.0000000000
       113        23  DCM   H2           -4.0976405709        2.6135683376       -3.6381532963  CLST          23          1.0000000000
       114        23  DCM   CL1          -5.2166534648        4.6749654408       -2.7309718496  CLST          23          1.0000000000
       115        23  DCM   CL2          -3.1058026630        4.3615891586       -4.8738711762  CLST          23          1.0000000000
       116        24  DCM   C            -3.4974774033       -7.3760271747       -9.3178044249  CLST          24          1.0000000000
       117        24  DCM   H1           -4.5450216303       -7.2906647061       -9.6374430193  CLST          24          1.0000000000
       118        24  DCM   H2           -3.1076078974       -6.4119719265       -8.9619837527  CLST          24          1.0000000000
       119        24  DCM   CL1          -3.3926463120       -8.5666119614       -7.9921579477  CLST          24          1.0000000000
       120        24  DCM   CL2          -2.5131594670       -7.9237105051      -10.7025466927  CLST          24          1.0000000000
       121        25  DCM   C            -3.5240154238      -14.1735842608      -10.3368953370  CLST          25          1.0000000000
       122        25  DCM   H1           -4.5481982968      -14.0198011660       -9.9690155123  CLST          25          1.0000000000
       123        25  DCM   H2           -2.7798341971      -13.8481388587       -9.5962893161  CLST          25          1.0000000000
       124        25  DCM   CL1          -3.2849953497      -15.9100917181      -10.6738792770  CLST          25          1.0000000000
       125        25  DCM   CL2          -3.3038843603      -13.2304782824      -11.8359471871  CLST          25          1.0000000000
       126        26  DCM   C           -17.8939695612        3.7196037901        3.3067444197  CLST          26          1.0000000000
       127        26  DCM   H1          -17.8494306630        4.7646701527        2.9701813077  CLST          26          1.0000000000
       128        26  DCM   H2          -17.8960493860        3.6497500233        4.4033917466  CLST          26          1.0000000000
       129        26  DCM   CL1         -19.3892773609        2.9745321910        2.6768584591  CLST          26          1.0000000000
       130        26  DCM   CL2         -16.4703495629        2.8486679350        2.6738033854  CLST          26          1.0000000000
       131        27  DCM   C           -14.5091599721      -16.5617361403      -11.1341066260  CLST          27          1.0000000000
       132        27  DCM   H1          -13.5786870667      -16.9760943818      -10.7213981262  CLST          27          1.0000000000
       133        27  DCM   H2          -14.3314331175      -15.6052850830      -11.6448268536  CLST          27          1.0000000000
       134        27  DCM   CL1         -15.1932315306      -17.7247239925      -12.3032063646  CLST          27          1.0000000000
       135        27  DCM   CL2         -15.6645625367      -16.2972063047       -9.7994408058  CLST          27          1.0000000000
       136        28  DCM   C             3.2131356619        3.1461058397        6.8924805675  CLST          28          1.0000000000
       137        28  DCM   H1            2.4727069417        2.4960033476        7.3794634070  CLST          28          1.0000000000
       138        28  DCM   H2            3.2116941161        3.0127668868        5.8015920861  CLST          28          1.0000000000
       139        28  DCM   CL1           2.8219755655        4.8480622474        7.2659238347  CLST          28          1.0000000000
       140        28  DCM   CL2           4.8353792709        2.7459182253        7.5214266912  CLST          28          1.0000000000
       141        29  DCM   C           -14.2541693518        3.8995721917       -3.6299104410  CLST          29          1.0000000000
       142        29  DCM   H1          -13.9028378727        4.5517399824       -2.8178502432  CLST          29          1.0000000000
       143        29  DCM   H2          -14.7290540746        2.9895824557       -3.2381855885  CLST          29          1.0000000000
       144        29  DCM   CL1         -15.4441988901        4.7938404283       -4.6155495052  CLST          29          1.0000000000
       145        29  DCM   CL2         -12.8587801545        3.4332246515       -4.6414883905  CLST          29          1.0000000000
       146        30  DCM   C            -3.1180834993        3.1939337677        3.1479077856  CLST          30          1.0000000000
       147        30  DCM   H1           -2.8250690900        3.1014191382        4.2026635012  CLST          30          1.0000000000
       148        30  DCM   H2           -2.5401590206        2.5120135644        2.5070852375  CLST          30          1.0000000000
       149        30  DCM   CL1          -4.8521597477        2.7990760668        2.9949129585  CLST          30          1.0000000000
       150        30  DCM   CL2          -2.8306012345        4.8726215470        2.6126130574  CLST          30          1.0000000000
