PSF EXT CMAP XPLOR

         1 !NTITLE
*  DATE:     7/15/26     20:18:27      CREATED BY USER: boittier                

       150 !NATOM
         1 CLST     1        DCM      C        CG321     0.00000       12.0110           0
         2 CLST     1        DCM      H1       HGA2      0.00000       1.00800           0
         3 CLST     1        DCM      H2       HGA2      0.00000       1.00800           0
         4 CLST     1        DCM      CL1      CLGA1     0.00000       35.4530           0
         5 CLST     1        DCM      CL2      CLGA1     0.00000       35.4530           0
         6 CLST     2        DCM      C        CG321     0.00000       12.0110           0
         7 CLST     2        DCM      H1       HGA2      0.00000       1.00800           0
         8 CLST     2        DCM      H2       HGA2      0.00000       1.00800           0
         9 CLST     2        DCM      CL1      CLGA1     0.00000       35.4530           0
        10 CLST     2        DCM      CL2      CLGA1     0.00000       35.4530           0
        11 CLST     3        DCM      C        CG321     0.00000       12.0110           0
        12 CLST     3        DCM      H1       HGA2      0.00000       1.00800           0
        13 CLST     3        DCM      H2       HGA2      0.00000       1.00800           0
        14 CLST     3        DCM      CL1      CLGA1     0.00000       35.4530           0
        15 CLST     3        DCM      CL2      CLGA1     0.00000       35.4530           0
        16 CLST     4        DCM      C        CG321     0.00000       12.0110           0
        17 CLST     4        DCM      H1       HGA2      0.00000       1.00800           0
        18 CLST     4        DCM      H2       HGA2      0.00000       1.00800           0
        19 CLST     4        DCM      CL1      CLGA1     0.00000       35.4530           0
        20 CLST     4        DCM      CL2      CLGA1     0.00000       35.4530           0
        21 CLST     5        DCM      C        CG321     0.00000       12.0110           0
        22 CLST     5        DCM      H1       HGA2      0.00000       1.00800           0
        23 CLST     5        DCM      H2       HGA2      0.00000       1.00800           0
        24 CLST     5        DCM      CL1      CLGA1     0.00000       35.4530           0
        25 CLST     5        DCM      CL2      CLGA1     0.00000       35.4530           0
        26 CLST     6        DCM      C        CG321     0.00000       12.0110           0
        27 CLST     6        DCM      H1       HGA2      0.00000       1.00800           0
        28 CLST     6        DCM      H2       HGA2      0.00000       1.00800           0
        29 CLST     6        DCM      CL1      CLGA1     0.00000       35.4530           0
        30 CLST     6        DCM      CL2      CLGA1     0.00000       35.4530           0
        31 CLST     7        DCM      C        CG321     0.00000       12.0110           0
        32 CLST     7        DCM      H1       HGA2      0.00000       1.00800           0
        33 CLST     7        DCM      H2       HGA2      0.00000       1.00800           0
        34 CLST     7        DCM      CL1      CLGA1     0.00000       35.4530           0
        35 CLST     7        DCM      CL2      CLGA1     0.00000       35.4530           0
        36 CLST     8        DCM      C        CG321     0.00000       12.0110           0
        37 CLST     8        DCM      H1       HGA2      0.00000       1.00800           0
        38 CLST     8        DCM      H2       HGA2      0.00000       1.00800           0
        39 CLST     8        DCM      CL1      CLGA1     0.00000       35.4530           0
        40 CLST     8        DCM      CL2      CLGA1     0.00000       35.4530           0
        41 CLST     9        DCM      C        CG321     0.00000       12.0110           0
        42 CLST     9        DCM      H1       HGA2      0.00000       1.00800           0
        43 CLST     9        DCM      H2       HGA2      0.00000       1.00800           0
        44 CLST     9        DCM      CL1      CLGA1     0.00000       35.4530           0
        45 CLST     9        DCM      CL2      CLGA1     0.00000       35.4530           0
        46 CLST     10       DCM      C        CG321     0.00000       12.0110           0
        47 CLST     10       DCM      H1       HGA2      0.00000       1.00800           0
        48 CLST     10       DCM      H2       HGA2      0.00000       1.00800           0
        49 CLST     10       DCM      CL1      CLGA1     0.00000       35.4530           0
        50 CLST     10       DCM      CL2      CLGA1     0.00000       35.4530           0
        51 CLST     11       DCM      C        CG321     0.00000       12.0110           0
        52 CLST     11       DCM      H1       HGA2      0.00000       1.00800           0
        53 CLST     11       DCM      H2       HGA2      0.00000       1.00800           0
        54 CLST     11       DCM      CL1      CLGA1     0.00000       35.4530           0
        55 CLST     11       DCM      CL2      CLGA1     0.00000       35.4530           0
        56 CLST     12       DCM      C        CG321     0.00000       12.0110           0
        57 CLST     12       DCM      H1       HGA2      0.00000       1.00800           0
        58 CLST     12       DCM      H2       HGA2      0.00000       1.00800           0
        59 CLST     12       DCM      CL1      CLGA1     0.00000       35.4530           0
        60 CLST     12       DCM      CL2      CLGA1     0.00000       35.4530           0
        61 CLST     13       DCM      C        CG321     0.00000       12.0110           0
        62 CLST     13       DCM      H1       HGA2      0.00000       1.00800           0
        63 CLST     13       DCM      H2       HGA2      0.00000       1.00800           0
        64 CLST     13       DCM      CL1      CLGA1     0.00000       35.4530           0
        65 CLST     13       DCM      CL2      CLGA1     0.00000       35.4530           0
        66 CLST     14       DCM      C        CG321     0.00000       12.0110           0
        67 CLST     14       DCM      H1       HGA2      0.00000       1.00800           0
        68 CLST     14       DCM      H2       HGA2      0.00000       1.00800           0
        69 CLST     14       DCM      CL1      CLGA1     0.00000       35.4530           0
        70 CLST     14       DCM      CL2      CLGA1     0.00000       35.4530           0
        71 CLST     15       DCM      C        CG321     0.00000       12.0110           0
        72 CLST     15       DCM      H1       HGA2      0.00000       1.00800           0
        73 CLST     15       DCM      H2       HGA2      0.00000       1.00800           0
        74 CLST     15       DCM      CL1      CLGA1     0.00000       35.4530           0
        75 CLST     15       DCM      CL2      CLGA1     0.00000       35.4530           0
        76 CLST     16       DCM      C        CG321     0.00000       12.0110           0
        77 CLST     16       DCM      H1       HGA2      0.00000       1.00800           0
        78 CLST     16       DCM      H2       HGA2      0.00000       1.00800           0
        79 CLST     16       DCM      CL1      CLGA1     0.00000       35.4530           0
        80 CLST     16       DCM      CL2      CLGA1     0.00000       35.4530           0
        81 CLST     17       DCM      C        CG321     0.00000       12.0110           0
        82 CLST     17       DCM      H1       HGA2      0.00000       1.00800           0
        83 CLST     17       DCM      H2       HGA2      0.00000       1.00800           0
        84 CLST     17       DCM      CL1      CLGA1     0.00000       35.4530           0
        85 CLST     17       DCM      CL2      CLGA1     0.00000       35.4530           0
        86 CLST     18       DCM      C        CG321     0.00000       12.0110           0
        87 CLST     18       DCM      H1       HGA2      0.00000       1.00800           0
        88 CLST     18       DCM      H2       HGA2      0.00000       1.00800           0
        89 CLST     18       DCM      CL1      CLGA1     0.00000       35.4530           0
        90 CLST     18       DCM      CL2      CLGA1     0.00000       35.4530           0
        91 CLST     19       DCM      C        CG321     0.00000       12.0110           0
        92 CLST     19       DCM      H1       HGA2      0.00000       1.00800           0
        93 CLST     19       DCM      H2       HGA2      0.00000       1.00800           0
        94 CLST     19       DCM      CL1      CLGA1     0.00000       35.4530           0
        95 CLST     19       DCM      CL2      CLGA1     0.00000       35.4530           0
        96 CLST     20       DCM      C        CG321     0.00000       12.0110           0
        97 CLST     20       DCM      H1       HGA2      0.00000       1.00800           0
        98 CLST     20       DCM      H2       HGA2      0.00000       1.00800           0
        99 CLST     20       DCM      CL1      CLGA1     0.00000       35.4530           0
       100 CLST     20       DCM      CL2      CLGA1     0.00000       35.4530           0
       101 CLST     21       DCM      C        CG321     0.00000       12.0110           0
       102 CLST     21       DCM      H1       HGA2      0.00000       1.00800           0
       103 CLST     21       DCM      H2       HGA2      0.00000       1.00800           0
       104 CLST     21       DCM      CL1      CLGA1     0.00000       35.4530           0
       105 CLST     21       DCM      CL2      CLGA1     0.00000       35.4530           0
       106 CLST     22       DCM      C        CG321     0.00000       12.0110           0
       107 CLST     22       DCM      H1       HGA2      0.00000       1.00800           0
       108 CLST     22       DCM      H2       HGA2      0.00000       1.00800           0
       109 CLST     22       DCM      CL1      CLGA1     0.00000       35.4530           0
       110 CLST     22       DCM      CL2      CLGA1     0.00000       35.4530           0
       111 CLST     23       DCM      C        CG321     0.00000       12.0110           0
       112 CLST     23       DCM      H1       HGA2      0.00000       1.00800           0
       113 CLST     23       DCM      H2       HGA2      0.00000       1.00800           0
       114 CLST     23       DCM      CL1      CLGA1     0.00000       35.4530           0
       115 CLST     23       DCM      CL2      CLGA1     0.00000       35.4530           0
       116 CLST     24       DCM      C        CG321     0.00000       12.0110           0
       117 CLST     24       DCM      H1       HGA2      0.00000       1.00800           0
       118 CLST     24       DCM      H2       HGA2      0.00000       1.00800           0
       119 CLST     24       DCM      CL1      CLGA1     0.00000       35.4530           0
       120 CLST     24       DCM      CL2      CLGA1     0.00000       35.4530           0
       121 CLST     25       DCM      C        CG321     0.00000       12.0110           0
       122 CLST     25       DCM      H1       HGA2      0.00000       1.00800           0
       123 CLST     25       DCM      H2       HGA2      0.00000       1.00800           0
       124 CLST     25       DCM      CL1      CLGA1     0.00000       35.4530           0
       125 CLST     25       DCM      CL2      CLGA1     0.00000       35.4530           0
       126 CLST     26       DCM      C        CG321     0.00000       12.0110           0
       127 CLST     26       DCM      H1       HGA2      0.00000       1.00800           0
       128 CLST     26       DCM      H2       HGA2      0.00000       1.00800           0
       129 CLST     26       DCM      CL1      CLGA1     0.00000       35.4530           0
       130 CLST     26       DCM      CL2      CLGA1     0.00000       35.4530           0
       131 CLST     27       DCM      C        CG321     0.00000       12.0110           0
       132 CLST     27       DCM      H1       HGA2      0.00000       1.00800           0
       133 CLST     27       DCM      H2       HGA2      0.00000       1.00800           0
       134 CLST     27       DCM      CL1      CLGA1     0.00000       35.4530           0
       135 CLST     27       DCM      CL2      CLGA1     0.00000       35.4530           0
       136 CLST     28       DCM      C        CG321     0.00000       12.0110           0
       137 CLST     28       DCM      H1       HGA2      0.00000       1.00800           0
       138 CLST     28       DCM      H2       HGA2      0.00000       1.00800           0
       139 CLST     28       DCM      CL1      CLGA1     0.00000       35.4530           0
       140 CLST     28       DCM      CL2      CLGA1     0.00000       35.4530           0
       141 CLST     29       DCM      C        CG321     0.00000       12.0110           0
       142 CLST     29       DCM      H1       HGA2      0.00000       1.00800           0
       143 CLST     29       DCM      H2       HGA2      0.00000       1.00800           0
       144 CLST     29       DCM      CL1      CLGA1     0.00000       35.4530           0
       145 CLST     29       DCM      CL2      CLGA1     0.00000       35.4530           0
       146 CLST     30       DCM      C        CG321     0.00000       12.0110           0
       147 CLST     30       DCM      H1       HGA2      0.00000       1.00800           0
       148 CLST     30       DCM      H2       HGA2      0.00000       1.00800           0
       149 CLST     30       DCM      CL1      CLGA1     0.00000       35.4530           0
       150 CLST     30       DCM      CL2      CLGA1     0.00000       35.4530           0

       120 !NBOND: bonds
         2         1         1         4         1         5         1         3
         7         6         6         9         6        10         6         8
        12        11        11        14        11        15        11        13
        17        16        16        19        16        20        16        18
        22        21        21        24        21        25        21        23
        27        26        26        29        26        30        26        28
        32        31        31        34        31        35        31        33
        37        36        36        39        36        40        36        38
        42        41        41        44        41        45        41        43
        47        46        46        49        46        50        46        48
        52        51        51        54        51        55        51        53
        57        56        56        59        56        60        56        58
        62        61        61        64        61        65        61        63
        67        66        66        69        66        70        66        68
        72        71        71        74        71        75        71        73
        77        76        76        79        76        80        76        78
        82        81        81        84        81        85        81        83
        87        86        86        89        86        90        86        88
        92        91        91        94        91        95        91        93
        97        96        96        99        96       100        96        98
       102       101       101       104       101       105       101       103
       107       106       106       109       106       110       106       108
       112       111       111       114       111       115       111       113
       117       116       116       119       116       120       116       118
       122       121       121       124       121       125       121       123
       127       126       126       129       126       130       126       128
       132       131       131       134       131       135       131       133
       137       136       136       139       136       140       136       138
       142       141       141       144       141       145       141       143
       147       146       146       149       146       150       146       148

       180 !NTHETA: angles
         2         1         3         2         1         4         2         1         5
         3         1         4         3         1         5         4         1         5
         7         6         8         7         6         9         7         6        10
         8         6         9         8         6        10         9         6        10
        12        11        13        12        11        14        12        11        15
        13        11        14        13        11        15        14        11        15
        17        16        18        17        16        19        17        16        20
        18        16        19        18        16        20        19        16        20
        22        21        23        22        21        24        22        21        25
        23        21        24        23        21        25        24        21        25
        27        26        28        27        26        29        27        26        30
        28        26        29        28        26        30        29        26        30
        32        31        33        32        31        34        32        31        35
        33        31        34        33        31        35        34        31        35
        37        36        38        37        36        39        37        36        40
        38        36        39        38        36        40        39        36        40
        42        41        43        42        41        44        42        41        45
        43        41        44        43        41        45        44        41        45
        47        46        48        47        46        49        47        46        50
        48        46        49        48        46        50        49        46        50
        52        51        53        52        51        54        52        51        55
        53        51        54        53        51        55        54        51        55
        57        56        58        57        56        59        57        56        60
        58        56        59        58        56        60        59        56        60
        62        61        63        62        61        64        62        61        65
        63        61        64        63        61        65        64        61        65
        67        66        68        67        66        69        67        66        70
        68        66        69        68        66        70        69        66        70
        72        71        73        72        71        74        72        71        75
        73        71        74        73        71        75        74        71        75
        77        76        78        77        76        79        77        76        80
        78        76        79        78        76        80        79        76        80
        82        81        83        82        81        84        82        81        85
        83        81        84        83        81        85        84        81        85
        87        86        88        87        86        89        87        86        90
        88        86        89        88        86        90        89        86        90
        92        91        93        92        91        94        92        91        95
        93        91        94        93        91        95        94        91        95
        97        96        98        97        96        99        97        96       100
        98        96        99        98        96       100        99        96       100
       102       101       103       102       101       104       102       101       105
       103       101       104       103       101       105       104       101       105
       107       106       108       107       106       109       107       106       110
       108       106       109       108       106       110       109       106       110
       112       111       113       112       111       114       112       111       115
       113       111       114       113       111       115       114       111       115
       117       116       118       117       116       119       117       116       120
       118       116       119       118       116       120       119       116       120
       122       121       123       122       121       124       122       121       125
       123       121       124       123       121       125       124       121       125
       127       126       128       127       126       129       127       126       130
       128       126       129       128       126       130       129       126       130
       132       131       133       132       131       134       132       131       135
       133       131       134       133       131       135       134       131       135
       137       136       138       137       136       139       137       136       140
       138       136       139       138       136       140       139       136       140
       142       141       143       142       141       144       142       141       145
       143       141       144       143       141       145       144       141       145
       147       146       148       147       146       149       147       146       150
       148       146       149       148       146       150       149       146       150

         0 !NPHI: dihedrals


         0 !NIMPHI: impropers


         0 !NDON: donors


         0 !NACC: acceptors


     11175 !NNB
         2         3         4         5         6         7         8         9
        10        11        12        13        14        15        16        17
        18        19        20        21        22        23        24        25
        26        27        28        29        30        31        32        33
        34        35        36        37        38        39        40        41
        42        43        44        45        46        47        48        49
        50        51        52        53        54        55        56        57
        58        59        60        61        62        63        64        65
        66        67        68        69        70        71        72        73
        74        75        76        77        78        79        80        81
        82        83        84        85        86        87        88        89
        90        91        92        93        94        95        96        97
        98        99       100       101       102       103       104       105
       106       107       108       109       110       111       112       113
       114       115       116       117       118       119       120       121
       122       123       124       125       126       127       128       129
       130       131       132       133       134       135       136       137
       138       139       140       141       142       143       144       145
       146       147       148       149       150         3         4         5
         6         7         8         9        10        11        12        13
        14        15        16        17        18        19        20        21
        22        23        24        25        26        27        28        29
        30        31        32        33        34        35        36        37
        38        39        40        41        42        43        44        45
        46        47        48        49        50        51        52        53
        54        55        56        57        58        59        60        61
        62        63        64        65        66        67        68        69
        70        71        72        73        74        75        76        77
        78        79        80        81        82        83        84        85
        86        87        88        89        90        91        92        93
        94        95        96        97        98        99       100       101
       102       103       104       105       106       107       108       109
       110       111       112       113       114       115       116       117
       118       119       120       121       122       123       124       125
       126       127       128       129       130       131       132       133
       134       135       136       137       138       139       140       141
       142       143       144       145       146       147       148       149
       150         4         5         6         7         8         9        10
        11        12        13        14        15        16        17        18
        19        20        21        22        23        24        25        26
        27        28        29        30        31        32        33        34
        35        36        37        38        39        40        41        42
        43        44        45        46        47        48        49        50
        51        52        53        54        55        56        57        58
        59        60        61        62        63        64        65        66
        67        68        69        70        71        72        73        74
        75        76        77        78        79        80        81        82
        83        84        85        86        87        88        89        90
        91        92        93        94        95        96        97        98
        99       100       101       102       103       104       105       106
       107       108       109       110       111       112       113       114
       115       116       117       118       119       120       121       122
       123       124       125       126       127       128       129       130
       131       132       133       134       135       136       137       138
       139       140       141       142       143       144       145       146
       147       148       149       150         5         6         7         8
         9        10        11        12        13        14        15        16
        17        18        19        20        21        22        23        24
        25        26        27        28        29        30        31        32
        33        34        35        36        37        38        39        40
        41        42        43        44        45        46        47        48
        49        50        51        52        53        54        55        56
        57        58        59        60        61        62        63        64
        65        66        67        68        69        70        71        72
        73        74        75        76        77        78        79        80
        81        82        83        84        85        86        87        88
        89        90        91        92        93        94        95        96
        97        98        99       100       101       102       103       104
       105       106       107       108       109       110       111       112
       113       114       115       116       117       118       119       120
       121       122       123       124       125       126       127       128
       129       130       131       132       133       134       135       136
       137       138       139       140       141       142       143       144
       145       146       147       148       149       150         6         7
         8         9        10        11        12        13        14        15
        16        17        18        19        20        21        22        23
        24        25        26        27        28        29        30        31
        32        33        34        35        36        37        38        39
        40        41        42        43        44        45        46        47
        48        49        50        51        52        53        54        55
        56        57        58        59        60        61        62        63
        64        65        66        67        68        69        70        71
        72        73        74        75        76        77        78        79
        80        81        82        83        84        85        86        87
        88        89        90        91        92        93        94        95
        96        97        98        99       100       101       102       103
       104       105       106       107       108       109       110       111
       112       113       114       115       116       117       118       119
       120       121       122       123       124       125       126       127
       128       129       130       131       132       133       134       135
       136       137       138       139       140       141       142       143
       144       145       146       147       148       149       150         7
         8         9        10        11        12        13        14        15
        16        17        18        19        20        21        22        23
        24        25        26        27        28        29        30        31
        32        33        34        35        36        37        38        39
        40        41        42        43        44        45        46        47
        48        49        50        51        52        53        54        55
        56        57        58        59        60        61        62        63
        64        65        66        67        68        69        70        71
        72        73        74        75        76        77        78        79
        80        81        82        83        84        85        86        87
        88        89        90        91        92        93        94        95
        96        97        98        99       100       101       102       103
       104       105       106       107       108       109       110       111
       112       113       114       115       116       117       118       119
       120       121       122       123       124       125       126       127
       128       129       130       131       132       133       134       135
       136       137       138       139       140       141       142       143
       144       145       146       147       148       149       150         8
         9        10        11        12        13        14        15        16
        17        18        19        20        21        22        23        24
        25        26        27        28        29        30        31        32
        33        34        35        36        37        38        39        40
        41        42        43        44        45        46        47        48
        49        50        51        52        53        54        55        56
        57        58        59        60        61        62        63        64
        65        66        67        68        69        70        71        72
        73        74        75        76        77        78        79        80
        81        82        83        84        85        86        87        88
        89        90        91        92        93        94        95        96
        97        98        99       100       101       102       103       104
       105       106       107       108       109       110       111       112
       113       114       115       116       117       118       119       120
       121       122       123       124       125       126       127       128
       129       130       131       132       133       134       135       136
       137       138       139       140       141       142       143       144
       145       146       147       148       149       150         9        10
        11        12        13        14        15        16        17        18
        19        20        21        22        23        24        25        26
        27        28        29        30        31        32        33        34
        35        36        37        38        39        40        41        42
        43        44        45        46        47        48        49        50
        51        52        53        54        55        56        57        58
        59        60        61        62        63        64        65        66
        67        68        69        70        71        72        73        74
        75        76        77        78        79        80        81        82
        83        84        85        86        87        88        89        90
        91        92        93        94        95        96        97        98
        99       100       101       102       103       104       105       106
       107       108       109       110       111       112       113       114
       115       116       117       118       119       120       121       122
       123       124       125       126       127       128       129       130
       131       132       133       134       135       136       137       138
       139       140       141       142       143       144       145       146
       147       148       149       150        10        11        12        13
        14        15        16        17        18        19        20        21
        22        23        24        25        26        27        28        29
        30        31        32        33        34        35        36        37
        38        39        40        41        42        43        44        45
        46        47        48        49        50        51        52        53
        54        55        56        57        58        59        60        61
        62        63        64        65        66        67        68        69
        70        71        72        73        74        75        76        77
        78        79        80        81        82        83        84        85
        86        87        88        89        90        91        92        93
        94        95        96        97        98        99       100       101
       102       103       104       105       106       107       108       109
       110       111       112       113       114       115       116       117
       118       119       120       121       122       123       124       125
       126       127       128       129       130       131       132       133
       134       135       136       137       138       139       140       141
       142       143       144       145       146       147       148       149
       150        11        12        13        14        15        16        17
        18        19        20        21        22        23        24        25
        26        27        28        29        30        31        32        33
        34        35        36        37        38        39        40        41
        42        43        44        45        46        47        48        49
        50        51        52        53        54        55        56        57
        58        59        60        61        62        63        64        65
        66        67        68        69        70        71        72        73
        74        75        76        77        78        79        80        81
        82        83        84        85        86        87        88        89
        90        91        92        93        94        95        96        97
        98        99       100       101       102       103       104       105
       106       107       108       109       110       111       112       113
       114       115       116       117       118       119       120       121
       122       123       124       125       126       127       128       129
       130       131       132       133       134       135       136       137
       138       139       140       141       142       143       144       145
       146       147       148       149       150        12        13        14
        15        16        17        18        19        20        21        22
        23        24        25        26        27        28        29        30
        31        32        33        34        35        36        37        38
        39        40        41        42        43        44        45        46
        47        48        49        50        51        52        53        54
        55        56        57        58        59        60        61        62
        63        64        65        66        67        68        69        70
        71        72        73        74        75        76        77        78
        79        80        81        82        83        84        85        86
        87        88        89        90        91        92        93        94
        95        96        97        98        99       100       101       102
       103       104       105       106       107       108       109       110
       111       112       113       114       115       116       117       118
       119       120       121       122       123       124       125       126
       127       128       129       130       131       132       133       134
       135       136       137       138       139       140       141       142
       143       144       145       146       147       148       149       150
        13        14        15        16        17        18        19        20
        21        22        23        24        25        26        27        28
        29        30        31        32        33        34        35        36
        37        38        39        40        41        42        43        44
        45        46        47        48        49        50        51        52
        53        54        55        56        57        58        59        60
        61        62        63        64        65        66        67        68
        69        70        71        72        73        74        75        76
        77        78        79        80        81        82        83        84
        85        86        87        88        89        90        91        92
        93        94        95        96        97        98        99       100
       101       102       103       104       105       106       107       108
       109       110       111       112       113       114       115       116
       117       118       119       120       121       122       123       124
       125       126       127       128       129       130       131       132
       133       134       135       136       137       138       139       140
       141       142       143       144       145       146       147       148
       149       150        14        15        16        17        18        19
        20        21        22        23        24        25        26        27
        28        29        30        31        32        33        34        35
        36        37        38        39        40        41        42        43
        44        45        46        47        48        49        50        51
        52        53        54        55        56        57        58        59
        60        61        62        63        64        65        66        67
        68        69        70        71        72        73        74        75
        76        77        78        79        80        81        82        83
        84        85        86        87        88        89        90        91
        92        93        94        95        96        97        98        99
       100       101       102       103       104       105       106       107
       108       109       110       111       112       113       114       115
       116       117       118       119       120       121       122       123
       124       125       126       127       128       129       130       131
       132       133       134       135       136       137       138       139
       140       141       142       143       144       145       146       147
       148       149       150        15        16        17        18        19
        20        21        22        23        24        25        26        27
        28        29        30        31        32        33        34        35
        36        37        38        39        40        41        42        43
        44        45        46        47        48        49        50        51
        52        53        54        55        56        57        58        59
        60        61        62        63        64        65        66        67
        68        69        70        71        72        73        74        75
        76        77        78        79        80        81        82        83
        84        85        86        87        88        89        90        91
        92        93        94        95        96        97        98        99
       100       101       102       103       104       105       106       107
       108       109       110       111       112       113       114       115
       116       117       118       119       120       121       122       123
       124       125       126       127       128       129       130       131
       132       133       134       135       136       137       138       139
       140       141       142       143       144       145       146       147
       148       149       150        16        17        18        19        20
        21        22        23        24        25        26        27        28
        29        30        31        32        33        34        35        36
        37        38        39        40        41        42        43        44
        45        46        47        48        49        50        51        52
        53        54        55        56        57        58        59        60
        61        62        63        64        65        66        67        68
        69        70        71        72        73        74        75        76
        77        78        79        80        81        82        83        84
        85        86        87        88        89        90        91        92
        93        94        95        96        97        98        99       100
       101       102       103       104       105       106       107       108
       109       110       111       112       113       114       115       116
       117       118       119       120       121       122       123       124
       125       126       127       128       129       130       131       132
       133       134       135       136       137       138       139       140
       141       142       143       144       145       146       147       148
       149       150        17        18        19        20        21        22
        23        24        25        26        27        28        29        30
        31        32        33        34        35        36        37        38
        39        40        41        42        43        44        45        46
        47        48        49        50        51        52        53        54
        55        56        57        58        59        60        61        62
        63        64        65        66        67        68        69        70
        71        72        73        74        75        76        77        78
        79        80        81        82        83        84        85        86
        87        88        89        90        91        92        93        94
        95        96        97        98        99       100       101       102
       103       104       105       106       107       108       109       110
       111       112       113       114       115       116       117       118
       119       120       121       122       123       124       125       126
       127       128       129       130       131       132       133       134
       135       136       137       138       139       140       141       142
       143       144       145       146       147       148       149       150
        18        19        20        21        22        23        24        25
        26        27        28        29        30        31        32        33
        34        35        36        37        38        39        40        41
        42        43        44        45        46        47        48        49
        50        51        52        53        54        55        56        57
        58        59        60        61        62        63        64        65
        66        67        68        69        70        71        72        73
        74        75        76        77        78        79        80        81
        82        83        84        85        86        87        88        89
        90        91        92        93        94        95        96        97
        98        99       100       101       102       103       104       105
       106       107       108       109       110       111       112       113
       114       115       116       117       118       119       120       121
       122       123       124       125       126       127       128       129
       130       131       132       133       134       135       136       137
       138       139       140       141       142       143       144       145
       146       147       148       149       150        19        20        21
        22        23        24        25        26        27        28        29
        30        31        32        33        34        35        36        37
        38        39        40        41        42        43        44        45
        46        47        48        49        50        51        52        53
        54        55        56        57        58        59        60        61
        62        63        64        65        66        67        68        69
        70        71        72        73        74        75        76        77
        78        79        80        81        82        83        84        85
        86        87        88        89        90        91        92        93
        94        95        96        97        98        99       100       101
       102       103       104       105       106       107       108       109
       110       111       112       113       114       115       116       117
       118       119       120       121       122       123       124       125
       126       127       128       129       130       131       132       133
       134       135       136       137       138       139       140       141
       142       143       144       145       146       147       148       149
       150        20        21        22        23        24        25        26
        27        28        29        30        31        32        33        34
        35        36        37        38        39        40        41        42
        43        44        45        46        47        48        49        50
        51        52        53        54        55        56        57        58
        59        60        61        62        63        64        65        66
        67        68        69        70        71        72        73        74
        75        76        77        78        79        80        81        82
        83        84        85        86        87        88        89        90
        91        92        93        94        95        96        97        98
        99       100       101       102       103       104       105       106
       107       108       109       110       111       112       113       114
       115       116       117       118       119       120       121       122
       123       124       125       126       127       128       129       130
       131       132       133       134       135       136       137       138
       139       140       141       142       143       144       145       146
       147       148       149       150        21        22        23        24
        25        26        27        28        29        30        31        32
        33        34        35        36        37        38        39        40
        41        42        43        44        45        46        47        48
        49        50        51        52        53        54        55        56
        57        58        59        60        61        62        63        64
        65        66        67        68        69        70        71        72
        73        74        75        76        77        78        79        80
        81        82        83        84        85        86        87        88
        89        90        91        92        93        94        95        96
        97        98        99       100       101       102       103       104
       105       106       107       108       109       110       111       112
       113       114       115       116       117       118       119       120
       121       122       123       124       125       126       127       128
       129       130       131       132       133       134       135       136
       137       138       139       140       141       142       143       144
       145       146       147       148       149       150        22        23
        24        25        26        27        28        29        30        31
        32        33        34        35        36        37        38        39
        40        41        42        43        44        45        46        47
        48        49        50        51        52        53        54        55
        56        57        58        59        60        61        62        63
        64        65        66        67        68        69        70        71
        72        73        74        75        76        77        78        79
        80        81        82        83        84        85        86        87
        88        89        90        91        92        93        94        95
        96        97        98        99       100       101       102       103
       104       105       106       107       108       109       110       111
       112       113       114       115       116       117       118       119
       120       121       122       123       124       125       126       127
       128       129       130       131       132       133       134       135
       136       137       138       139       140       141       142       143
       144       145       146       147       148       149       150        23
        24        25        26        27        28        29        30        31
        32        33        34        35        36        37        38        39
        40        41        42        43        44        45        46        47
        48        49        50        51        52        53        54        55
        56        57        58        59        60        61        62        63
        64        65        66        67        68        69        70        71
        72        73        74        75        76        77        78        79
        80        81        82        83        84        85        86        87
        88        89        90        91        92        93        94        95
        96        97        98        99       100       101       102       103
       104       105       106       107       108       109       110       111
       112       113       114       115       116       117       118       119
       120       121       122       123       124       125       126       127
       128       129       130       131       132       133       134       135
       136       137       138       139       140       141       142       143
       144       145       146       147       148       149       150        24
        25        26        27        28        29        30        31        32
        33        34        35        36        37        38        39        40
        41        42        43        44        45        46        47        48
        49        50        51        52        53        54        55        56
        57        58        59        60        61        62        63        64
        65        66        67        68        69        70        71        72
        73        74        75        76        77        78        79        80
        81        82        83        84        85        86        87        88
        89        90        91        92        93        94        95        96
        97        98        99       100       101       102       103       104
       105       106       107       108       109       110       111       112
       113       114       115       116       117       118       119       120
       121       122       123       124       125       126       127       128
       129       130       131       132       133       134       135       136
       137       138       139       140       141       142       143       144
       145       146       147       148       149       150        25        26
        27        28        29        30        31        32        33        34
        35        36        37        38        39        40        41        42
        43        44        45        46        47        48        49        50
        51        52        53        54        55        56        57        58
        59        60        61        62        63        64        65        66
        67        68        69        70        71        72        73        74
        75        76        77        78        79        80        81        82
        83        84        85        86        87        88        89        90
        91        92        93        94        95        96        97        98
        99       100       101       102       103       104       105       106
       107       108       109       110       111       112       113       114
       115       116       117       118       119       120       121       122
       123       124       125       126       127       128       129       130
       131       132       133       134       135       136       137       138
       139       140       141       142       143       144       145       146
       147       148       149       150        26        27        28        29
        30        31        32        33        34        35        36        37
        38        39        40        41        42        43        44        45
        46        47        48        49        50        51        52        53
        54        55        56        57        58        59        60        61
        62        63        64        65        66        67        68        69
        70        71        72        73        74        75        76        77
        78        79        80        81        82        83        84        85
        86        87        88        89        90        91        92        93
        94        95        96        97        98        99       100       101
       102       103       104       105       106       107       108       109
       110       111       112       113       114       115       116       117
       118       119       120       121       122       123       124       125
       126       127       128       129       130       131       132       133
       134       135       136       137       138       139       140       141
       142       143       144       145       146       147       148       149
       150        27        28        29        30        31        32        33
        34        35        36        37        38        39        40        41
        42        43        44        45        46        47        48        49
        50        51        52        53        54        55        56        57
        58        59        60        61        62        63        64        65
        66        67        68        69        70        71        72        73
        74        75        76        77        78        79        80        81
        82        83        84        85        86        87        88        89
        90        91        92        93        94        95        96        97
        98        99       100       101       102       103       104       105
       106       107       108       109       110       111       112       113
       114       115       116       117       118       119       120       121
       122       123       124       125       126       127       128       129
       130       131       132       133       134       135       136       137
       138       139       140       141       142       143       144       145
       146       147       148       149       150        28        29        30
        31        32        33        34        35        36        37        38
        39        40        41        42        43        44        45        46
        47        48        49        50        51        52        53        54
        55        56        57        58        59        60        61        62
        63        64        65        66        67        68        69        70
        71        72        73        74        75        76        77        78
        79        80        81        82        83        84        85        86
        87        88        89        90        91        92        93        94
        95        96        97        98        99       100       101       102
       103       104       105       106       107       108       109       110
       111       112       113       114       115       116       117       118
       119       120       121       122       123       124       125       126
       127       128       129       130       131       132       133       134
       135       136       137       138       139       140       141       142
       143       144       145       146       147       148       149       150
        29        30        31        32        33        34        35        36
        37        38        39        40        41        42        43        44
        45        46        47        48        49        50        51        52
        53        54        55        56        57        58        59        60
        61        62        63        64        65        66        67        68
        69        70        71        72        73        74        75        76
        77        78        79        80        81        82        83        84
        85        86        87        88        89        90        91        92
        93        94        95        96        97        98        99       100
       101       102       103       104       105       106       107       108
       109       110       111       112       113       114       115       116
       117       118       119       120       121       122       123       124
       125       126       127       128       129       130       131       132
       133       134       135       136       137       138       139       140
       141       142       143       144       145       146       147       148
       149       150        30        31        32        33        34        35
        36        37        38        39        40        41        42        43
        44        45        46        47        48        49        50        51
        52        53        54        55        56        57        58        59
        60        61        62        63        64        65        66        67
        68        69        70        71        72        73        74        75
        76        77        78        79        80        81        82        83
        84        85        86        87        88        89        90        91
        92        93        94        95        96        97        98        99
       100       101       102       103       104       105       106       107
       108       109       110       111       112       113       114       115
       116       117       118       119       120       121       122       123
       124       125       126       127       128       129       130       131
       132       133       134       135       136       137       138       139
       140       141       142       143       144       145       146       147
       148       149       150        31        32        33        34        35
        36        37        38        39        40        41        42        43
        44        45        46        47        48        49        50        51
        52        53        54        55        56        57        58        59
        60        61        62        63        64        65        66        67
        68        69        70        71        72        73        74        75
        76        77        78        79        80        81        82        83
        84        85        86        87        88        89        90        91
        92        93        94        95        96        97        98        99
       100       101       102       103       104       105       106       107
       108       109       110       111       112       113       114       115
       116       117       118       119       120       121       122       123
       124       125       126       127       128       129       130       131
       132       133       134       135       136       137       138       139
       140       141       142       143       144       145       146       147
       148       149       150        32        33        34        35        36
        37        38        39        40        41        42        43        44
        45        46        47        48        49        50        51        52
        53        54        55        56        57        58        59        60
        61        62        63        64        65        66        67        68
        69        70        71        72        73        74        75        76
        77        78        79        80        81        82        83        84
        85        86        87        88        89        90        91        92
        93        94        95        96        97        98        99       100
       101       102       103       104       105       106       107       108
       109       110       111       112       113       114       115       116
       117       118       119       120       121       122       123       124
       125       126       127       128       129       130       131       132
       133       134       135       136       137       138       139       140
       141       142       143       144       145       146       147       148
       149       150        33        34        35        36        37        38
        39        40        41        42        43        44        45        46
        47        48        49        50        51        52        53        54
        55        56        57        58        59        60        61        62
        63        64        65        66        67        68        69        70
        71        72        73        74        75        76        77        78
        79        80        81        82        83        84        85        86
        87        88        89        90        91        92        93        94
        95        96        97        98        99       100       101       102
       103       104       105       106       107       108       109       110
       111       112       113       114       115       116       117       118
       119       120       121       122       123       124       125       126
       127       128       129       130       131       132       133       134
       135       136       137       138       139       140       141       142
       143       144       145       146       147       148       149       150
        34        35        36        37        38        39        40        41
        42        43        44        45        46        47        48        49
        50        51        52        53        54        55        56        57
        58        59        60        61        62        63        64        65
        66        67        68        69        70        71        72        73
        74        75        76        77        78        79        80        81
        82        83        84        85        86        87        88        89
        90        91        92        93        94        95        96        97
        98        99       100       101       102       103       104       105
       106       107       108       109       110       111       112       113
       114       115       116       117       118       119       120       121
       122       123       124       125       126       127       128       129
       130       131       132       133       134       135       136       137
       138       139       140       141       142       143       144       145
       146       147       148       149       150        35        36        37
        38        39        40        41        42        43        44        45
        46        47        48        49        50        51        52        53
        54        55        56        57        58        59        60        61
        62        63        64        65        66        67        68        69
        70        71        72        73        74        75        76        77
        78        79        80        81        82        83        84        85
        86        87        88        89        90        91        92        93
        94        95        96        97        98        99       100       101
       102       103       104       105       106       107       108       109
       110       111       112       113       114       115       116       117
       118       119       120       121       122       123       124       125
       126       127       128       129       130       131       132       133
       134       135       136       137       138       139       140       141
       142       143       144       145       146       147       148       149
       150        36        37        38        39        40        41        42
        43        44        45        46        47        48        49        50
        51        52        53        54        55        56        57        58
        59        60        61        62        63        64        65        66
        67        68        69        70        71        72        73        74
        75        76        77        78        79        80        81        82
        83        84        85        86        87        88        89        90
        91        92        93        94        95        96        97        98
        99       100       101       102       103       104       105       106
       107       108       109       110       111       112       113       114
       115       116       117       118       119       120       121       122
       123       124       125       126       127       128       129       130
       131       132       133       134       135       136       137       138
       139       140       141       142       143       144       145       146
       147       148       149       150        37        38        39        40
        41        42        43        44        45        46        47        48
        49        50        51        52        53        54        55        56
        57        58        59        60        61        62        63        64
        65        66        67        68        69        70        71        72
        73        74        75        76        77        78        79        80
        81        82        83        84        85        86        87        88
        89        90        91        92        93        94        95        96
        97        98        99       100       101       102       103       104
       105       106       107       108       109       110       111       112
       113       114       115       116       117       118       119       120
       121       122       123       124       125       126       127       128
       129       130       131       132       133       134       135       136
       137       138       139       140       141       142       143       144
       145       146       147       148       149       150        38        39
        40        41        42        43        44        45        46        47
        48        49        50        51        52        53        54        55
        56        57        58        59        60        61        62        63
        64        65        66        67        68        69        70        71
        72        73        74        75        76        77        78        79
        80        81        82        83        84        85        86        87
        88        89        90        91        92        93        94        95
        96        97        98        99       100       101       102       103
       104       105       106       107       108       109       110       111
       112       113       114       115       116       117       118       119
       120       121       122       123       124       125       126       127
       128       129       130       131       132       133       134       135
       136       137       138       139       140       141       142       143
       144       145       146       147       148       149       150        39
        40        41        42        43        44        45        46        47
        48        49        50        51        52        53        54        55
        56        57        58        59        60        61        62        63
        64        65        66        67        68        69        70        71
        72        73        74        75        76        77        78        79
        80        81        82        83        84        85        86        87
        88        89        90        91        92        93        94        95
        96        97        98        99       100       101       102       103
       104       105       106       107       108       109       110       111
       112       113       114       115       116       117       118       119
       120       121       122       123       124       125       126       127
       128       129       130       131       132       133       134       135
       136       137       138       139       140       141       142       143
       144       145       146       147       148       149       150        40
        41        42        43        44        45        46        47        48
        49        50        51        52        53        54        55        56
        57        58        59        60        61        62        63        64
        65        66        67        68        69        70        71        72
        73        74        75        76        77        78        79        80
        81        82        83        84        85        86        87        88
        89        90        91        92        93        94        95        96
        97        98        99       100       101       102       103       104
       105       106       107       108       109       110       111       112
       113       114       115       116       117       118       119       120
       121       122       123       124       125       126       127       128
       129       130       131       132       133       134       135       136
       137       138       139       140       141       142       143       144
       145       146       147       148       149       150        41        42
        43        44        45        46        47        48        49        50
        51        52        53        54        55        56        57        58
        59        60        61        62        63        64        65        66
        67        68        69        70        71        72        73        74
        75        76        77        78        79        80        81        82
        83        84        85        86        87        88        89        90
        91        92        93        94        95        96        97        98
        99       100       101       102       103       104       105       106
       107       108       109       110       111       112       113       114
       115       116       117       118       119       120       121       122
       123       124       125       126       127       128       129       130
       131       132       133       134       135       136       137       138
       139       140       141       142       143       144       145       146
       147       148       149       150        42        43        44        45
        46        47        48        49        50        51        52        53
        54        55        56        57        58        59        60        61
        62        63        64        65        66        67        68        69
        70        71        72        73        74        75        76        77
        78        79        80        81        82        83        84        85
        86        87        88        89        90        91        92        93
        94        95        96        97        98        99       100       101
       102       103       104       105       106       107       108       109
       110       111       112       113       114       115       116       117
       118       119       120       121       122       123       124       125
       126       127       128       129       130       131       132       133
       134       135       136       137       138       139       140       141
       142       143       144       145       146       147       148       149
       150        43        44        45        46        47        48        49
        50        51        52        53        54        55        56        57
        58        59        60        61        62        63        64        65
        66        67        68        69        70        71        72        73
        74        75        76        77        78        79        80        81
        82        83        84        85        86        87        88        89
        90        91        92        93        94        95        96        97
        98        99       100       101       102       103       104       105
       106       107       108       109       110       111       112       113
       114       115       116       117       118       119       120       121
       122       123       124       125       126       127       128       129
       130       131       132       133       134       135       136       137
       138       139       140       141       142       143       144       145
       146       147       148       149       150        44        45        46
        47        48        49        50        51        52        53        54
        55        56        57        58        59        60        61        62
        63        64        65        66        67        68        69        70
        71        72        73        74        75        76        77        78
        79        80        81        82        83        84        85        86
        87        88        89        90        91        92        93        94
        95        96        97        98        99       100       101       102
       103       104       105       106       107       108       109       110
       111       112       113       114       115       116       117       118
       119       120       121       122       123       124       125       126
       127       128       129       130       131       132       133       134
       135       136       137       138       139       140       141       142
       143       144       145       146       147       148       149       150
        45        46        47        48        49        50        51        52
        53        54        55        56        57        58        59        60
        61        62        63        64        65        66        67        68
        69        70        71        72        73        74        75        76
        77        78        79        80        81        82        83        84
        85        86        87        88        89        90        91        92
        93        94        95        96        97        98        99       100
       101       102       103       104       105       106       107       108
       109       110       111       112       113       114       115       116
       117       118       119       120       121       122       123       124
       125       126       127       128       129       130       131       132
       133       134       135       136       137       138       139       140
       141       142       143       144       145       146       147       148
       149       150        46        47        48        49        50        51
        52        53        54        55        56        57        58        59
        60        61        62        63        64        65        66        67
        68        69        70        71        72        73        74        75
        76        77        78        79        80        81        82        83
        84        85        86        87        88        89        90        91
        92        93        94        95        96        97        98        99
       100       101       102       103       104       105       106       107
       108       109       110       111       112       113       114       115
       116       117       118       119       120       121       122       123
       124       125       126       127       128       129       130       131
       132       133       134       135       136       137       138       139
       140       141       142       143       144       145       146       147
       148       149       150        47        48        49        50        51
        52        53        54        55        56        57        58        59
        60        61        62        63        64        65        66        67
        68        69        70        71        72        73        74        75
        76        77        78        79        80        81        82        83
        84        85        86        87        88        89        90        91
        92        93        94        95        96        97        98        99
       100       101       102       103       104       105       106       107
       108       109       110       111       112       113       114       115
       116       117       118       119       120       121       122       123
       124       125       126       127       128       129       130       131
       132       133       134       135       136       137       138       139
       140       141       142       143       144       145       146       147
       148       149       150        48        49        50        51        52
        53        54        55        56        57        58        59        60
        61        62        63        64        65        66        67        68
        69        70        71        72        73        74        75        76
        77        78        79        80        81        82        83        84
        85        86        87        88        89        90        91        92
        93        94        95        96        97        98        99       100
       101       102       103       104       105       106       107       108
       109       110       111       112       113       114       115       116
       117       118       119       120       121       122       123       124
       125       126       127       128       129       130       131       132
       133       134       135       136       137       138       139       140
       141       142       143       144       145       146       147       148
       149       150        49        50        51        52        53        54
        55        56        57        58        59        60        61        62
        63        64        65        66        67        68        69        70
        71        72        73        74        75        76        77        78
        79        80        81        82        83        84        85        86
        87        88        89        90        91        92        93        94
        95        96        97        98        99       100       101       102
       103       104       105       106       107       108       109       110
       111       112       113       114       115       116       117       118
       119       120       121       122       123       124       125       126
       127       128       129       130       131       132       133       134
       135       136       137       138       139       140       141       142
       143       144       145       146       147       148       149       150
        50        51        52        53        54        55        56        57
        58        59        60        61        62        63        64        65
        66        67        68        69        70        71        72        73
        74        75        76        77        78        79        80        81
        82        83        84        85        86        87        88        89
        90        91        92        93        94        95        96        97
        98        99       100       101       102       103       104       105
       106       107       108       109       110       111       112       113
       114       115       116       117       118       119       120       121
       122       123       124       125       126       127       128       129
       130       131       132       133       134       135       136       137
       138       139       140       141       142       143       144       145
       146       147       148       149       150        51        52        53
        54        55        56        57        58        59        60        61
        62        63        64        65        66        67        68        69
        70        71        72        73        74        75        76        77
        78        79        80        81        82        83        84        85
        86        87        88        89        90        91        92        93
        94        95        96        97        98        99       100       101
       102       103       104       105       106       107       108       109
       110       111       112       113       114       115       116       117
       118       119       120       121       122       123       124       125
       126       127       128       129       130       131       132       133
       134       135       136       137       138       139       140       141
       142       143       144       145       146       147       148       149
       150        52        53        54        55        56        57        58
        59        60        61        62        63        64        65        66
        67        68        69        70        71        72        73        74
        75        76        77        78        79        80        81        82
        83        84        85        86        87        88        89        90
        91        92        93        94        95        96        97        98
        99       100       101       102       103       104       105       106
       107       108       109       110       111       112       113       114
       115       116       117       118       119       120       121       122
       123       124       125       126       127       128       129       130
       131       132       133       134       135       136       137       138
       139       140       141       142       143       144       145       146
       147       148       149       150        53        54        55        56
        57        58        59        60        61        62        63        64
        65        66        67        68        69        70        71        72
        73        74        75        76        77        78        79        80
        81        82        83        84        85        86        87        88
        89        90        91        92        93        94        95        96
        97        98        99       100       101       102       103       104
       105       106       107       108       109       110       111       112
       113       114       115       116       117       118       119       120
       121       122       123       124       125       126       127       128
       129       130       131       132       133       134       135       136
       137       138       139       140       141       142       143       144
       145       146       147       148       149       150        54        55
        56        57        58        59        60        61        62        63
        64        65        66        67        68        69        70        71
        72        73        74        75        76        77        78        79
        80        81        82        83        84        85        86        87
        88        89        90        91        92        93        94        95
        96        97        98        99       100       101       102       103
       104       105       106       107       108       109       110       111
       112       113       114       115       116       117       118       119
       120       121       122       123       124       125       126       127
       128       129       130       131       132       133       134       135
       136       137       138       139       140       141       142       143
       144       145       146       147       148       149       150        55
        56        57        58        59        60        61        62        63
        64        65        66        67        68        69        70        71
        72        73        74        75        76        77        78        79
        80        81        82        83        84        85        86        87
        88        89        90        91        92        93        94        95
        96        97        98        99       100       101       102       103
       104       105       106       107       108       109       110       111
       112       113       114       115       116       117       118       119
       120       121       122       123       124       125       126       127
       128       129       130       131       132       133       134       135
       136       137       138       139       140       141       142       143
       144       145       146       147       148       149       150        56
        57        58        59        60        61        62        63        64
        65        66        67        68        69        70        71        72
        73        74        75        76        77        78        79        80
        81        82        83        84        85        86        87        88
        89        90        91        92        93        94        95        96
        97        98        99       100       101       102       103       104
       105       106       107       108       109       110       111       112
       113       114       115       116       117       118       119       120
       121       122       123       124       125       126       127       128
       129       130       131       132       133       134       135       136
       137       138       139       140       141       142       143       144
       145       146       147       148       149       150        57        58
        59        60        61        62        63        64        65        66
        67        68        69        70        71        72        73        74
        75        76        77        78        79        80        81        82
        83        84        85        86        87        88        89        90
        91        92        93        94        95        96        97        98
        99       100       101       102       103       104       105       106
       107       108       109       110       111       112       113       114
       115       116       117       118       119       120       121       122
       123       124       125       126       127       128       129       130
       131       132       133       134       135       136       137       138
       139       140       141       142       143       144       145       146
       147       148       149       150        58        59        60        61
        62        63        64        65        66        67        68        69
        70        71        72        73        74        75        76        77
        78        79        80        81        82        83        84        85
        86        87        88        89        90        91        92        93
        94        95        96        97        98        99       100       101
       102       103       104       105       106       107       108       109
       110       111       112       113       114       115       116       117
       118       119       120       121       122       123       124       125
       126       127       128       129       130       131       132       133
       134       135       136       137       138       139       140       141
       142       143       144       145       146       147       148       149
       150        59        60        61        62        63        64        65
        66        67        68        69        70        71        72        73
        74        75        76        77        78        79        80        81
        82        83        84        85        86        87        88        89
        90        91        92        93        94        95        96        97
        98        99       100       101       102       103       104       105
       106       107       108       109       110       111       112       113
       114       115       116       117       118       119       120       121
       122       123       124       125       126       127       128       129
       130       131       132       133       134       135       136       137
       138       139       140       141       142       143       144       145
       146       147       148       149       150        60        61        62
        63        64        65        66        67        68        69        70
        71        72        73        74        75        76        77        78
        79        80        81        82        83        84        85        86
        87        88        89        90        91        92        93        94
        95        96        97        98        99       100       101       102
       103       104       105       106       107       108       109       110
       111       112       113       114       115       116       117       118
       119       120       121       122       123       124       125       126
       127       128       129       130       131       132       133       134
       135       136       137       138       139       140       141       142
       143       144       145       146       147       148       149       150
        61        62        63        64        65        66        67        68
        69        70        71        72        73        74        75        76
        77        78        79        80        81        82        83        84
        85        86        87        88        89        90        91        92
        93        94        95        96        97        98        99       100
       101       102       103       104       105       106       107       108
       109       110       111       112       113       114       115       116
       117       118       119       120       121       122       123       124
       125       126       127       128       129       130       131       132
       133       134       135       136       137       138       139       140
       141       142       143       144       145       146       147       148
       149       150        62        63        64        65        66        67
        68        69        70        71        72        73        74        75
        76        77        78        79        80        81        82        83
        84        85        86        87        88        89        90        91
        92        93        94        95        96        97        98        99
       100       101       102       103       104       105       106       107
       108       109       110       111       112       113       114       115
       116       117       118       119       120       121       122       123
       124       125       126       127       128       129       130       131
       132       133       134       135       136       137       138       139
       140       141       142       143       144       145       146       147
       148       149       150        63        64        65        66        67
        68        69        70        71        72        73        74        75
        76        77        78        79        80        81        82        83
        84        85        86        87        88        89        90        91
        92        93        94        95        96        97        98        99
       100       101       102       103       104       105       106       107
       108       109       110       111       112       113       114       115
       116       117       118       119       120       121       122       123
       124       125       126       127       128       129       130       131
       132       133       134       135       136       137       138       139
       140       141       142       143       144       145       146       147
       148       149       150        64        65        66        67        68
        69        70        71        72        73        74        75        76
        77        78        79        80        81        82        83        84
        85        86        87        88        89        90        91        92
        93        94        95        96        97        98        99       100
       101       102       103       104       105       106       107       108
       109       110       111       112       113       114       115       116
       117       118       119       120       121       122       123       124
       125       126       127       128       129       130       131       132
       133       134       135       136       137       138       139       140
       141       142       143       144       145       146       147       148
       149       150        65        66        67        68        69        70
        71        72        73        74        75        76        77        78
        79        80        81        82        83        84        85        86
        87        88        89        90        91        92        93        94
        95        96        97        98        99       100       101       102
       103       104       105       106       107       108       109       110
       111       112       113       114       115       116       117       118
       119       120       121       122       123       124       125       126
       127       128       129       130       131       132       133       134
       135       136       137       138       139       140       141       142
       143       144       145       146       147       148       149       150
        66        67        68        69        70        71        72        73
        74        75        76        77        78        79        80        81
        82        83        84        85        86        87        88        89
        90        91        92        93        94        95        96        97
        98        99       100       101       102       103       104       105
       106       107       108       109       110       111       112       113
       114       115       116       117       118       119       120       121
       122       123       124       125       126       127       128       129
       130       131       132       133       134       135       136       137
       138       139       140       141       142       143       144       145
       146       147       148       149       150        67        68        69
        70        71        72        73        74        75        76        77
        78        79        80        81        82        83        84        85
        86        87        88        89        90        91        92        93
        94        95        96        97        98        99       100       101
       102       103       104       105       106       107       108       109
       110       111       112       113       114       115       116       117
       118       119       120       121       122       123       124       125
       126       127       128       129       130       131       132       133
       134       135       136       137       138       139       140       141
       142       143       144       145       146       147       148       149
       150        68        69        70        71        72        73        74
        75        76        77        78        79        80        81        82
        83        84        85        86        87        88        89        90
        91        92        93        94        95        96        97        98
        99       100       101       102       103       104       105       106
       107       108       109       110       111       112       113       114
       115       116       117       118       119       120       121       122
       123       124       125       126       127       128       129       130
       131       132       133       134       135       136       137       138
       139       140       141       142       143       144       145       146
       147       148       149       150        69        70        71        72
        73        74        75        76        77        78        79        80
        81        82        83        84        85        86        87        88
        89        90        91        92        93        94        95        96
        97        98        99       100       101       102       103       104
       105       106       107       108       109       110       111       112
       113       114       115       116       117       118       119       120
       121       122       123       124       125       126       127       128
       129       130       131       132       133       134       135       136
       137       138       139       140       141       142       143       144
       145       146       147       148       149       150        70        71
        72        73        74        75        76        77        78        79
        80        81        82        83        84        85        86        87
        88        89        90        91        92        93        94        95
        96        97        98        99       100       101       102       103
       104       105       106       107       108       109       110       111
       112       113       114       115       116       117       118       119
       120       121       122       123       124       125       126       127
       128       129       130       131       132       133       134       135
       136       137       138       139       140       141       142       143
       144       145       146       147       148       149       150        71
        72        73        74        75        76        77        78        79
        80        81        82        83        84        85        86        87
        88        89        90        91        92        93        94        95
        96        97        98        99       100       101       102       103
       104       105       106       107       108       109       110       111
       112       113       114       115       116       117       118       119
       120       121       122       123       124       125       126       127
       128       129       130       131       132       133       134       135
       136       137       138       139       140       141       142       143
       144       145       146       147       148       149       150        72
        73        74        75        76        77        78        79        80
        81        82        83        84        85        86        87        88
        89        90        91        92        93        94        95        96
        97        98        99       100       101       102       103       104
       105       106       107       108       109       110       111       112
       113       114       115       116       117       118       119       120
       121       122       123       124       125       126       127       128
       129       130       131       132       133       134       135       136
       137       138       139       140       141       142       143       144
       145       146       147       148       149       150        73        74
        75        76        77        78        79        80        81        82
        83        84        85        86        87        88        89        90
        91        92        93        94        95        96        97        98
        99       100       101       102       103       104       105       106
       107       108       109       110       111       112       113       114
       115       116       117       118       119       120       121       122
       123       124       125       126       127       128       129       130
       131       132       133       134       135       136       137       138
       139       140       141       142       143       144       145       146
       147       148       149       150        74        75        76        77
        78        79        80        81        82        83        84        85
        86        87        88        89        90        91        92        93
        94        95        96        97        98        99       100       101
       102       103       104       105       106       107       108       109
       110       111       112       113       114       115       116       117
       118       119       120       121       122       123       124       125
       126       127       128       129       130       131       132       133
       134       135       136       137       138       139       140       141
       142       143       144       145       146       147       148       149
       150        75        76        77        78        79        80        81
        82        83        84        85        86        87        88        89
        90        91        92        93        94        95        96        97
        98        99       100       101       102       103       104       105
       106       107       108       109       110       111       112       113
       114       115       116       117       118       119       120       121
       122       123       124       125       126       127       128       129
       130       131       132       133       134       135       136       137
       138       139       140       141       142       143       144       145
       146       147       148       149       150        76        77        78
        79        80        81        82        83        84        85        86
        87        88        89        90        91        92        93        94
        95        96        97        98        99       100       101       102
       103       104       105       106       107       108       109       110
       111       112       113       114       115       116       117       118
       119       120       121       122       123       124       125       126
       127       128       129       130       131       132       133       134
       135       136       137       138       139       140       141       142
       143       144       145       146       147       148       149       150
        77        78        79        80        81        82        83        84
        85        86        87        88        89        90        91        92
        93        94        95        96        97        98        99       100
       101       102       103       104       105       106       107       108
       109       110       111       112       113       114       115       116
       117       118       119       120       121       122       123       124
       125       126       127       128       129       130       131       132
       133       134       135       136       137       138       139       140
       141       142       143       144       145       146       147       148
       149       150        78        79        80        81        82        83
        84        85        86        87        88        89        90        91
        92        93        94        95        96        97        98        99
       100       101       102       103       104       105       106       107
       108       109       110       111       112       113       114       115
       116       117       118       119       120       121       122       123
       124       125       126       127       128       129       130       131
       132       133       134       135       136       137       138       139
       140       141       142       143       144       145       146       147
       148       149       150        79        80        81        82        83
        84        85        86        87        88        89        90        91
        92        93        94        95        96        97        98        99
       100       101       102       103       104       105       106       107
       108       109       110       111       112       113       114       115
       116       117       118       119       120       121       122       123
       124       125       126       127       128       129       130       131
       132       133       134       135       136       137       138       139
       140       141       142       143       144       145       146       147
       148       149       150        80        81        82        83        84
        85        86        87        88        89        90        91        92
        93        94        95        96        97        98        99       100
       101       102       103       104       105       106       107       108
       109       110       111       112       113       114       115       116
       117       118       119       120       121       122       123       124
       125       126       127       128       129       130       131       132
       133       134       135       136       137       138       139       140
       141       142       143       144       145       146       147       148
       149       150        81        82        83        84        85        86
        87        88        89        90        91        92        93        94
        95        96        97        98        99       100       101       102
       103       104       105       106       107       108       109       110
       111       112       113       114       115       116       117       118
       119       120       121       122       123       124       125       126
       127       128       129       130       131       132       133       134
       135       136       137       138       139       140       141       142
       143       144       145       146       147       148       149       150
        82        83        84        85        86        87        88        89
        90        91        92        93        94        95        96        97
        98        99       100       101       102       103       104       105
       106       107       108       109       110       111       112       113
       114       115       116       117       118       119       120       121
       122       123       124       125       126       127       128       129
       130       131       132       133       134       135       136       137
       138       139       140       141       142       143       144       145
       146       147       148       149       150        83        84        85
        86        87        88        89        90        91        92        93
        94        95        96        97        98        99       100       101
       102       103       104       105       106       107       108       109
       110       111       112       113       114       115       116       117
       118       119       120       121       122       123       124       125
       126       127       128       129       130       131       132       133
       134       135       136       137       138       139       140       141
       142       143       144       145       146       147       148       149
       150        84        85        86        87        88        89        90
        91        92        93        94        95        96        97        98
        99       100       101       102       103       104       105       106
       107       108       109       110       111       112       113       114
       115       116       117       118       119       120       121       122
       123       124       125       126       127       128       129       130
       131       132       133       134       135       136       137       138
       139       140       141       142       143       144       145       146
       147       148       149       150        85        86        87        88
        89        90        91        92        93        94        95        96
        97        98        99       100       101       102       103       104
       105       106       107       108       109       110       111       112
       113       114       115       116       117       118       119       120
       121       122       123       124       125       126       127       128
       129       130       131       132       133       134       135       136
       137       138       139       140       141       142       143       144
       145       146       147       148       149       150        86        87
        88        89        90        91        92        93        94        95
        96        97        98        99       100       101       102       103
       104       105       106       107       108       109       110       111
       112       113       114       115       116       117       118       119
       120       121       122       123       124       125       126       127
       128       129       130       131       132       133       134       135
       136       137       138       139       140       141       142       143
       144       145       146       147       148       149       150        87
        88        89        90        91        92        93        94        95
        96        97        98        99       100       101       102       103
       104       105       106       107       108       109       110       111
       112       113       114       115       116       117       118       119
       120       121       122       123       124       125       126       127
       128       129       130       131       132       133       134       135
       136       137       138       139       140       141       142       143
       144       145       146       147       148       149       150        88
        89        90        91        92        93        94        95        96
        97        98        99       100       101       102       103       104
       105       106       107       108       109       110       111       112
       113       114       115       116       117       118       119       120
       121       122       123       124       125       126       127       128
       129       130       131       132       133       134       135       136
       137       138       139       140       141       142       143       144
       145       146       147       148       149       150        89        90
        91        92        93        94        95        96        97        98
        99       100       101       102       103       104       105       106
       107       108       109       110       111       112       113       114
       115       116       117       118       119       120       121       122
       123       124       125       126       127       128       129       130
       131       132       133       134       135       136       137       138
       139       140       141       142       143       144       145       146
       147       148       149       150        90        91        92        93
        94        95        96        97        98        99       100       101
       102       103       104       105       106       107       108       109
       110       111       112       113       114       115       116       117
       118       119       120       121       122       123       124       125
       126       127       128       129       130       131       132       133
       134       135       136       137       138       139       140       141
       142       143       144       145       146       147       148       149
       150        91        92        93        94        95        96        97
        98        99       100       101       102       103       104       105
       106       107       108       109       110       111       112       113
       114       115       116       117       118       119       120       121
       122       123       124       125       126       127       128       129
       130       131       132       133       134       135       136       137
       138       139       140       141       142       143       144       145
       146       147       148       149       150        92        93        94
        95        96        97        98        99       100       101       102
       103       104       105       106       107       108       109       110
       111       112       113       114       115       116       117       118
       119       120       121       122       123       124       125       126
       127       128       129       130       131       132       133       134
       135       136       137       138       139       140       141       142
       143       144       145       146       147       148       149       150
        93        94        95        96        97        98        99       100
       101       102       103       104       105       106       107       108
       109       110       111       112       113       114       115       116
       117       118       119       120       121       122       123       124
       125       126       127       128       129       130       131       132
       133       134       135       136       137       138       139       140
       141       142       143       144       145       146       147       148
       149       150        94        95        96        97        98        99
       100       101       102       103       104       105       106       107
       108       109       110       111       112       113       114       115
       116       117       118       119       120       121       122       123
       124       125       126       127       128       129       130       131
       132       133       134       135       136       137       138       139
       140       141       142       143       144       145       146       147
       148       149       150        95        96        97        98        99
       100       101       102       103       104       105       106       107
       108       109       110       111       112       113       114       115
       116       117       118       119       120       121       122       123
       124       125       126       127       128       129       130       131
       132       133       134       135       136       137       138       139
       140       141       142       143       144       145       146       147
       148       149       150        96        97        98        99       100
       101       102       103       104       105       106       107       108
       109       110       111       112       113       114       115       116
       117       118       119       120       121       122       123       124
       125       126       127       128       129       130       131       132
       133       134       135       136       137       138       139       140
       141       142       143       144       145       146       147       148
       149       150        97        98        99       100       101       102
       103       104       105       106       107       108       109       110
       111       112       113       114       115       116       117       118
       119       120       121       122       123       124       125       126
       127       128       129       130       131       132       133       134
       135       136       137       138       139       140       141       142
       143       144       145       146       147       148       149       150
        98        99       100       101       102       103       104       105
       106       107       108       109       110       111       112       113
       114       115       116       117       118       119       120       121
       122       123       124       125       126       127       128       129
       130       131       132       133       134       135       136       137
       138       139       140       141       142       143       144       145
       146       147       148       149       150        99       100       101
       102       103       104       105       106       107       108       109
       110       111       112       113       114       115       116       117
       118       119       120       121       122       123       124       125
       126       127       128       129       130       131       132       133
       134       135       136       137       138       139       140       141
       142       143       144       145       146       147       148       149
       150       100       101       102       103       104       105       106
       107       108       109       110       111       112       113       114
       115       116       117       118       119       120       121       122
       123       124       125       126       127       128       129       130
       131       132       133       134       135       136       137       138
       139       140       141       142       143       144       145       146
       147       148       149       150       101       102       103       104
       105       106       107       108       109       110       111       112
       113       114       115       116       117       118       119       120
       121       122       123       124       125       126       127       128
       129       130       131       132       133       134       135       136
       137       138       139       140       141       142       143       144
       145       146       147       148       149       150       102       103
       104       105       106       107       108       109       110       111
       112       113       114       115       116       117       118       119
       120       121       122       123       124       125       126       127
       128       129       130       131       132       133       134       135
       136       137       138       139       140       141       142       143
       144       145       146       147       148       149       150       103
       104       105       106       107       108       109       110       111
       112       113       114       115       116       117       118       119
       120       121       122       123       124       125       126       127
       128       129       130       131       132       133       134       135
       136       137       138       139       140       141       142       143
       144       145       146       147       148       149       150       104
       105       106       107       108       109       110       111       112
       113       114       115       116       117       118       119       120
       121       122       123       124       125       126       127       128
       129       130       131       132       133       134       135       136
       137       138       139       140       141       142       143       144
       145       146       147       148       149       150       105       106
       107       108       109       110       111       112       113       114
       115       116       117       118       119       120       121       122
       123       124       125       126       127       128       129       130
       131       132       133       134       135       136       137       138
       139       140       141       142       143       144       145       146
       147       148       149       150       106       107       108       109
       110       111       112       113       114       115       116       117
       118       119       120       121       122       123       124       125
       126       127       128       129       130       131       132       133
       134       135       136       137       138       139       140       141
       142       143       144       145       146       147       148       149
       150       107       108       109       110       111       112       113
       114       115       116       117       118       119       120       121
       122       123       124       125       126       127       128       129
       130       131       132       133       134       135       136       137
       138       139       140       141       142       143       144       145
       146       147       148       149       150       108       109       110
       111       112       113       114       115       116       117       118
       119       120       121       122       123       124       125       126
       127       128       129       130       131       132       133       134
       135       136       137       138       139       140       141       142
       143       144       145       146       147       148       149       150
       109       110       111       112       113       114       115       116
       117       118       119       120       121       122       123       124
       125       126       127       128       129       130       131       132
       133       134       135       136       137       138       139       140
       141       142       143       144       145       146       147       148
       149       150       110       111       112       113       114       115
       116       117       118       119       120       121       122       123
       124       125       126       127       128       129       130       131
       132       133       134       135       136       137       138       139
       140       141       142       143       144       145       146       147
       148       149       150       111       112       113       114       115
       116       117       118       119       120       121       122       123
       124       125       126       127       128       129       130       131
       132       133       134       135       136       137       138       139
       140       141       142       143       144       145       146       147
       148       149       150       112       113       114       115       116
       117       118       119       120       121       122       123       124
       125       126       127       128       129       130       131       132
       133       134       135       136       137       138       139       140
       141       142       143       144       145       146       147       148
       149       150       113       114       115       116       117       118
       119       120       121       122       123       124       125       126
       127       128       129       130       131       132       133       134
       135       136       137       138       139       140       141       142
       143       144       145       146       147       148       149       150
       114       115       116       117       118       119       120       121
       122       123       124       125       126       127       128       129
       130       131       132       133       134       135       136       137
       138       139       140       141       142       143       144       145
       146       147       148       149       150       115       116       117
       118       119       120       121       122       123       124       125
       126       127       128       129       130       131       132       133
       134       135       136       137       138       139       140       141
       142       143       144       145       146       147       148       149
       150       116       117       118       119       120       121       122
       123       124       125       126       127       128       129       130
       131       132       133       134       135       136       137       138
       139       140       141       142       143       144       145       146
       147       148       149       150       117       118       119       120
       121       122       123       124       125       126       127       128
       129       130       131       132       133       134       135       136
       137       138       139       140       141       142       143       144
       145       146       147       148       149       150       118       119
       120       121       122       123       124       125       126       127
       128       129       130       131       132       133       134       135
       136       137       138       139       140       141       142       143
       144       145       146       147       148       149       150       119
       120       121       122       123       124       125       126       127
       128       129       130       131       132       133       134       135
       136       137       138       139       140       141       142       143
       144       145       146       147       148       149       150       120
       121       122       123       124       125       126       127       128
       129       130       131       132       133       134       135       136
       137       138       139       140       141       142       143       144
       145       146       147       148       149       150       121       122
       123       124       125       126       127       128       129       130
       131       132       133       134       135       136       137       138
       139       140       141       142       143       144       145       146
       147       148       149       150       122       123       124       125
       126       127       128       129       130       131       132       133
       134       135       136       137       138       139       140       141
       142       143       144       145       146       147       148       149
       150       123       124       125       126       127       128       129
       130       131       132       133       134       135       136       137
       138       139       140       141       142       143       144       145
       146       147       148       149       150       124       125       126
       127       128       129       130       131       132       133       134
       135       136       137       138       139       140       141       142
       143       144       145       146       147       148       149       150
       125       126       127       128       129       130       131       132
       133       134       135       136       137       138       139       140
       141       142       143       144       145       146       147       148
       149       150       126       127       128       129       130       131
       132       133       134       135       136       137       138       139
       140       141       142       143       144       145       146       147
       148       149       150       127       128       129       130       131
       132       133       134       135       136       137       138       139
       140       141       142       143       144       145       146       147
       148       149       150       128       129       130       131       132
       133       134       135       136       137       138       139       140
       141       142       143       144       145       146       147       148
       149       150       129       130       131       132       133       134
       135       136       137       138       139       140       141       142
       143       144       145       146       147       148       149       150
       130       131       132       133       134       135       136       137
       138       139       140       141       142       143       144       145
       146       147       148       149       150       131       132       133
       134       135       136       137       138       139       140       141
       142       143       144       145       146       147       148       149
       150       132       133       134       135       136       137       138
       139       140       141       142       143       144       145       146
       147       148       149       150       133       134       135       136
       137       138       139       140       141       142       143       144
       145       146       147       148       149       150       134       135
       136       137       138       139       140       141       142       143
       144       145       146       147       148       149       150       135
       136       137       138       139       140       141       142       143
       144       145       146       147       148       149       150       136
       137       138       139       140       141       142       143       144
       145       146       147       148       149       150       137       138
       139       140       141       142       143       144       145       146
       147       148       149       150       138       139       140       141
       142       143       144       145       146       147       148       149
       150       139       140       141       142       143       144       145
       146       147       148       149       150       140       141       142
       143       144       145       146       147       148       149       150
       141       142       143       144       145       146       147       148
       149       150       142       143       144       145       146       147
       148       149       150       143       144       145       146       147
       148       149       150       144       145       146       147       148
       149       150       145       146       147       148       149       150
       146       147       148       149       150       147       148       149
       150       148       149       150       149       150       150
       149       297       444       590       735       879      1022      1164
      1305      1445      1584      1722      1859      1995      2130      2264
      2397      2529      2660      2790      2919      3047      3174      3300
      3425      3549      3672      3794      3915      4035      4154      4272
      4389      4505      4620      4734      4847      4959      5070      5180
      5289      5397      5504      5610      5715      5819      5922      6024
      6125      6225      6324      6422      6519      6615      6710      6804
      6897      6989      7080      7170      7259      7347      7434      7520
      7605      7689      7772      7854      7935      8015      8094      8172
      8249      8325      8400      8474      8547      8619      8690      8760
      8829      8897      8964      9030      9095      9159      9222      9284
      9345      9405      9464      9522      9579      9635      9690      9744
      9797      9849      9900      9950      9999     10047     10094     10140
     10185     10229     10272     10314     10355     10395     10434     10472
     10509     10545     10580     10614     10647     10679     10710     10740
     10769     10797     10824     10850     10875     10899     10922     10944
     10965     10985     11004     11022     11039     11055     11070     11084
     11097     11109     11120     11130     11139     11147     11154     11160
     11165     11169     11172     11174     11175     11175

        30         0 !NGRP NST2
         0         1         0         5         1         0        10         1         0
        15         1         0        20         1         0        25         1         0
        30         1         0        35         1         0        40         1         0
        45         1         0        50         1         0        55         1         0
        60         1         0        65         1         0        70         1         0
        75         1         0        80         1         0        85         1         0
        90         1         0        95         1         0       100         1         0
       105         1         0       110         1         0       115         1         0
       120         1         0       125         1         0       130         1         0
       135         1         0       140         1         0       145         1         0

         0         0 !NUMLP NUMLPH

         0 !NCRTERM: cross-terms

