PSF EXT CMAP XPLOR

         1 !NTITLE
*  DATE:     7/16/26     15:47:47      CREATED BY USER: boittier                

        15 !NATOM
         1 CLST     1        DCM      C        CG321   -0.180000E-01   12.0110           0
         2 CLST     1        DCM      H1       HGA2     0.900000E-01   1.00800           0
         3 CLST     1        DCM      H2       HGA2     0.900000E-01   1.00800           0
         4 CLST     1        DCM      CL1      CLGA1   -0.810000E-01   35.4530           0
         5 CLST     1        DCM      CL2      CLGA1   -0.810000E-01   35.4530           0
         6 CLST     2        ACO      O1       OG2D3   -0.480000       15.9994           0
         7 CLST     2        ACO      C1       CG2O5    0.400000       12.0110           0
         8 CLST     2        ACO      C2       CG331   -0.230000       12.0110           0
         9 CLST     2        ACO      C3       CG331   -0.230000       12.0110           0
        10 CLST     2        ACO      H21      HGA3     0.900000E-01   1.00800           0
        11 CLST     2        ACO      H22      HGA3     0.900000E-01   1.00800           0
        12 CLST     2        ACO      H23      HGA3     0.900000E-01   1.00800           0
        13 CLST     2        ACO      H31      HGA3     0.900000E-01   1.00800           0
        14 CLST     2        ACO      H32      HGA3     0.900000E-01   1.00800           0
        15 CLST     2        ACO      H33      HGA3     0.900000E-01   1.00800           0

        13 !NBOND: bonds
         2         1         1         4         1         5         1         3
         7         8         7         9         8        10         8        11
         8        12         9        13         9        14         9        15
         6         7

        21 !NTHETA: angles
         2         1         3         2         1         4         2         1         5
         3         1         4         3         1         5         4         1         5
         6         7         8         6         7         9         8         7         9
         7         8        10         7         8        11         7         8        12
        10         8        11        10         8        12        11         8        12
         7         9        13         7         9        14         7         9        15
        13         9        14        13         9        15        14         9        15

        12 !NPHI: dihedrals
         6         7         8        10         6         7         8        11
         6         7         8        12         6         7         9        13
         6         7         9        14         6         7         9        15
         8         7         9        13         8         7         9        14
         8         7         9        15         9         7         8        10
         9         7         8        11         9         7         8        12

         1 !NIMPHI: impropers
         7         8         9         6

         0 !NDON: donors


         1 !NACC: acceptors
         6         0

         0 !NNB

         0         0         0         0         0         0         0         0
         0         0         0         0         0         0         0

         2         0 !NGRP NST2
         0         1         0         5         1         0

         0         0 !NUMLP NUMLPH

         0 !NCRTERM: cross-terms

