* INITIAL
*  DATE:     6/28/26      2:32:57      CREATED BY USER: boittier
*
       490  EXT
         1         1  DCM       C              -2.5667565620       -5.1439137686       -8.5652461400  CLST      1               1.0000000000
         2         1  DCM       H1             -3.5614814933       -5.5959848677       -8.3645130500  CLST      1               1.0000000000
         3         1  DCM       H2             -2.1133269672       -4.7502502104       -7.6310720240  CLST      1               1.0000000000
         4         1  DCM       CL1            -1.4892614469       -6.3913996996       -9.2538668471  CLST      1               1.0000000000
         5         1  DCM       CL2            -2.7607803918       -3.8035520355       -9.7305731894  CLST      1               1.0000000000
         6         2  DCM       C             -12.9954119674       -0.0477905257       -2.9501865334  CLST      2               1.0000000000
         7         2  DCM       H1            -12.0011435400       -0.2204534241       -3.4131016963  CLST      2               1.0000000000
         8         2  DCM       H2            -13.7923061774       -0.5944246484       -3.4977147854  CLST      2               1.0000000000
         9         2  DCM       CL1           -12.9548716161       -0.6239868159       -1.2596123197  CLST      2               1.0000000000
        10         2  DCM       CL2           -13.3560550594        1.7025916453       -2.9857854270  CLST      2               1.0000000000
        11         3  DCM       C              -4.4402383893        2.6056625579       19.2274458022  CLST      3               1.0000000000
        12         3  DCM       H1             -4.4577218870        3.6084216809       18.7503413755  CLST      3               1.0000000000
        13         3  DCM       H2             -4.5744547119        2.6829457965       20.3272313446  CLST      3               1.0000000000
        14         3  DCM       CL1            -5.7656733966        1.6161530838       18.5484901884  CLST      3               1.0000000000
        15         3  DCM       CL2            -2.8666573381        1.8278472448       18.8873501217  CLST      3               1.0000000000
        16         4  DCM       C               1.4331890867        5.9465477397       -5.7331325184  CLST      4               1.0000000000
        17         4  DCM       H1              1.0392146146        5.1231339301       -6.3661888273  CLST      4               1.0000000000
        18         4  DCM       H2              0.6053990693        6.5362918528       -5.2876664796  CLST      4               1.0000000000
        19         4  DCM       CL1             2.4289140645        5.2532768972       -4.4218163488  CLST      4               1.0000000000
        20         4  DCM       CL2             2.4381920880        7.0191769762       -6.7482441929  CLST      4               1.0000000000
        21         5  DCM       C               0.2566825608       -2.4719862049       -7.3698563634  CLST      5               1.0000000000
        22         5  DCM       H1              1.1445028717       -2.9738264126       -7.8079307876  CLST      5               1.0000000000
        23         5  DCM       H2             -0.6253215702       -2.5618679230       -8.0377791831  CLST      5               1.0000000000
        24         5  DCM       CL1             0.6277002661       -0.7405537328       -7.1304081633  CLST      5               1.0000000000
        25         5  DCM       CL2            -0.1190175377       -3.2389666361       -5.8012143929  CLST      5               1.0000000000
        26         6  DCM       C             -10.6021374390       -4.1497013199        4.4353285417  CLST      6               1.0000000000
        27         6  DCM       H1            -11.7099253896       -4.2218134317        4.4532001128  CLST      6               1.0000000000
        28         6  DCM       H2            -10.1737874441       -4.7817956287        3.6288961812  CLST      6               1.0000000000
        29         6  DCM       CL1           -10.1326375779       -2.4487434636        4.1517685693  CLST      6               1.0000000000
        30         6  DCM       CL2            -9.9617219499       -4.6985134229        6.0112550076  CLST      6               1.0000000000
        31         7  DCM       C              -5.8286762206       -1.7768353067        6.3394234647  CLST      7               1.0000000000
        32         7  DCM       H1             -5.6292860041       -2.6989434845        5.7541341245  CLST      7               1.0000000000
        33         7  DCM       H2             -5.4944400697       -0.8735198541        5.7887111272  CLST      7               1.0000000000
        34         7  DCM       CL1            -7.5839023253       -1.6564896687        6.6486808612  CLST      7               1.0000000000
        35         7  DCM       CL2            -4.9437561617       -1.8769855977        7.8882062465  CLST      7               1.0000000000
        36         8  DCM       C              13.7450269282       -0.6046084606        2.7994463553  CLST      8               1.0000000000
        37         8  DCM       H1             12.8485189501       -0.0100713177        3.0764105578  CLST      8               1.0000000000
        38         8  DCM       H2             14.6538766231       -0.2116666449        3.3019700828  CLST      8               1.0000000000
        39         8  DCM       CL1            13.4956503947       -2.3058898819        3.2888674749  CLST      8               1.0000000000
        40         8  DCM       CL2            13.9779262762       -0.5185324038        1.0307435308  CLST      8               1.0000000000
        41         9  DCM       C              10.7510834671       -4.0840942658        5.4390502568  CLST      9               1.0000000000
        42         9  DCM       H1              9.9559810229       -4.7150776267        4.9893495929  CLST      9               1.0000000000
        43         9  DCM       H2             11.2308051200       -3.4461686073        4.6694458406  CLST      9               1.0000000000
        44         9  DCM       CL1            10.0291153169       -3.0364195671        6.6944495134  CLST      9               1.0000000000
        45         9  DCM       CL2            11.9949679741       -5.1388830022        6.1689948046  CLST      9               1.0000000000
        46        10  DCM       C               3.2683902727        8.4910713466        5.4236849070  CLST      10              1.0000000000
        47        10  DCM       H1              2.6361776269        8.1763003498        4.5699691210  CLST      10              1.0000000000
        48        10  DCM       H2              2.8509984984        9.3944988325        5.9124820763  CLST      10              1.0000000000
        49        10  DCM       CL1             3.3331947679        7.1600485889        6.6141840569  CLST      10              1.0000000000
        50        10  DCM       CL2             4.9116702691        8.8600660403        4.8252566074  CLST      10              1.0000000000
        51        11  DCM       C               7.8654747536        0.3778650400       -4.8233287329  CLST      11              1.0000000000
        52        11  DCM       H1              7.2218294145        0.7369181445       -5.6546059187  CLST      11              1.0000000000
        53        11  DCM       H2              8.0703254193        1.1948033734       -4.1010495379  CLST      11              1.0000000000
        54        11  DCM       CL1             7.0323727637       -0.9546817327       -3.9724418659  CLST      11              1.0000000000
        55        11  DCM       CL2             9.4202417929       -0.2015827296       -5.4865347450  CLST      11              1.0000000000
        56        12  DCM       C               0.1205888690       -3.1491370140        8.3678484137  CLST      12              1.0000000000
        57        12  DCM       H1              0.5096246537       -2.1742815620        8.7320370976  CLST      12              1.0000000000
        58        12  DCM       H2             -0.2881907841       -3.7545337505        9.2041359202  CLST      12              1.0000000000
        59        12  DCM       CL1            -1.1813263642       -2.8482638259        7.1816682042  CLST      12              1.0000000000
        60        12  DCM       CL2             1.4511036141       -4.0544644288        7.5900254145  CLST      12              1.0000000000
        61        13  DCM       C              -4.7117246942       -5.4790172950        8.8166566608  CLST      13              1.0000000000
        62        13  DCM       H1             -5.3481424206       -4.6241709483        9.1313695797  CLST      13              1.0000000000
        63        13  DCM       H2             -5.0822017611       -6.4330034866        9.2461138062  CLST      13              1.0000000000
        64        13  DCM       CL1            -4.7391627776       -5.5967061489        7.0347280067  CLST      13              1.0000000000
        65        13  DCM       CL2            -3.0371499470       -5.1967401321        9.3750452082  CLST      13              1.0000000000
        66        14  DCM       C             -11.4818981906       -4.4458876618       -4.2054644485  CLST      14              1.0000000000
        67        14  DCM       H1            -10.7767497730       -3.6330702077       -4.4774656875  CLST      14              1.0000000000
        68        14  DCM       H2            -11.8603409643       -4.9654068377       -5.1107751217  CLST      14              1.0000000000
        69        14  DCM       CL1           -10.6325181385       -5.6279384844       -3.1676108229  CLST      14              1.0000000000
        70        14  DCM       CL2           -12.8647581797       -3.7416063103       -3.3190806381  CLST      14              1.0000000000
        71        15  DCM       C               6.3862103696       -3.4672244752        6.1679874741  CLST      15              1.0000000000
        72        15  DCM       H1              6.4182731973       -4.4792507727        6.6235030710  CLST      15              1.0000000000
        73        15  DCM       H2              6.9984342746       -2.7465323551        6.7507606246  CLST      15              1.0000000000
        74        15  DCM       CL1             7.0256944600       -3.5563475863        4.5019141340  CLST      15              1.0000000000
        75        15  DCM       CL2             4.6931179088       -2.8980820445        6.1375499313  CLST      15              1.0000000000
        76        16  DCM       C               2.3646450048       -6.1751043139       -7.0275671555  CLST      16              1.0000000000
        77        16  DCM       H1              3.2847253603       -5.7285690580       -7.4614386587  CLST      16              1.0000000000
        78        16  DCM       H2              1.5519934352       -5.4223890835       -6.9583316311  CLST      16              1.0000000000
        79        16  DCM       CL1             2.7279602886       -6.7882462480       -5.3859060086  CLST      16              1.0000000000
        80        16  DCM       CL2             1.8178186199       -7.5172813860       -8.0727226652  CLST      16              1.0000000000
        81        17  DCM       C              -0.5224414619       -5.4736115038        2.6329046180  CLST      17              1.0000000000
        82        17  DCM       H1             -0.0631228383       -6.4592451539        2.8581942274  CLST      17              1.0000000000
        83        17  DCM       H2             -1.6097262508       -5.4865709780        2.8541085189  CLST      17              1.0000000000
        84        17  DCM       CL1             0.2661981834       -4.2214610786        3.6359073137  CLST      17              1.0000000000
        85        17  DCM       CL2            -0.2943455999       -5.1032014875        0.8999581646  CLST      17              1.0000000000
        86        18  DCM       C               0.5402857504        4.6238974289        5.9416773302  CLST      18              1.0000000000
        87        18  DCM       H1              1.4653944501        4.7425314188        5.3400260352  CLST      18              1.0000000000
        88        18  DCM       H2              0.5378479561        5.3178922295        6.8086765446  CLST      18              1.0000000000
        89        18  DCM       CL1            -0.8753409132        4.9761380531        4.9079261760  CLST      18              1.0000000000
        90        18  DCM       CL2             0.4528300334        2.9408780807        6.5386267893  CLST      18              1.0000000000
        91        19  DCM       C             -13.1362607847       -2.2362383895        2.1243107761  CLST      19              1.0000000000
        92        19  DCM       H1            -12.1932899777       -1.6791767754        2.3019671117  CLST      19              1.0000000000
        93        19  DCM       H2            -13.7831097069       -1.6948138321        1.4027939486  CLST      19              1.0000000000
        94        19  DCM       CL1           -12.7442334987       -3.8501927865        1.4627526744  CLST      19              1.0000000000
        95        19  DCM       CL2           -14.0058289616       -2.4097641244        3.6759250275  CLST      19              1.0000000000
        96        20  DCM       C              -1.0678116595       -6.5757194558        6.1704345718  CLST      20              1.0000000000
        97        20  DCM       H1             -1.1553418102       -5.5013940546        5.9055822867  CLST      20              1.0000000000
        98        20  DCM       H2             -1.3498939729       -6.7463850494        7.2306685323  CLST      20              1.0000000000
        99        20  DCM       CL1            -2.1589210710       -7.5196144438        5.1165122759  CLST      20              1.0000000000
       100        20  DCM       CL2             0.6221239083       -7.1047267848        5.9201093554  CLST      20              1.0000000000
       101        21  DCM       C              -9.1367547428        2.4254806996       -2.4330634041  CLST      21              1.0000000000
       102        21  DCM       H1             -8.0782679809        2.1230223178       -2.3081823561  CLST      21              1.0000000000
       103        21  DCM       H2             -9.2313248777        3.5312780894       -2.4278526417  CLST      21              1.0000000000
       104        21  DCM       CL1            -9.7457364611        1.7903928251       -3.9882164709  CLST      21              1.0000000000
       105        21  DCM       CL2           -10.0942282142        1.7458715373       -1.0873217362  CLST      21              1.0000000000
       106        22  DCM       C              -5.1081994999        7.6131980998        1.5133250680  CLST      22              1.0000000000
       107        22  DCM       H1             -4.7260034837        6.5723692591        1.4984875510  CLST      22              1.0000000000
       108        22  DCM       H2             -4.6012186251        8.2301355225        0.7430907264  CLST      22              1.0000000000
       109        22  DCM       CL1            -6.8625631309        7.5908126122        1.1823103931  CLST      22              1.0000000000
       110        22  DCM       CL2            -4.8025592627        8.3223668847        3.1249278520  CLST      22              1.0000000000
       111        23  DCM       C               3.3151105284       -1.5899890032       -4.7344235975  CLST      23              1.0000000000
       112        23  DCM       H1              3.8546628445       -1.6203566011       -3.7646712312  CLST      23              1.0000000000
       113        23  DCM       H2              2.2399750240       -1.3567110057       -4.5863506986  CLST      23              1.0000000000
       114        23  DCM       CL1             4.0507219115       -0.3324233357       -5.7651254867  CLST      23              1.0000000000
       115        23  DCM       CL2             3.4631033892       -3.1773360413       -5.5393162285  CLST      23              1.0000000000
       116        24  DCM       C              -2.3273226872        6.4436247233       -2.1794107634  CLST      24              1.0000000000
       117        24  DCM       H1             -2.3344720594        7.5170282765       -2.4540005763  CLST      24              1.0000000000
       118        24  DCM       H2             -1.5136077678        6.2248486585       -1.4585913321  CLST      24              1.0000000000
       119        24  DCM       CL1            -3.8895494114        6.0203703312       -1.4289883220  CLST      24              1.0000000000
       120        24  DCM       CL2            -2.0748797384        5.4745007338       -3.6540845616  CLST      24              1.0000000000
       121        25  DCM       C               1.8697813965        9.2849387982       -3.6058366346  CLST      25              1.0000000000
       122        25  DCM       H1              1.8812692940       10.3657489543       -3.3504262260  CLST      25              1.0000000000
       123        25  DCM       H2              1.9758825077        9.1322010207       -4.7003177778  CLST      25              1.0000000000
       124        25  DCM       CL1             3.2251081788        8.4743661445       -2.7715934479  CLST      25              1.0000000000
       125        25  DCM       CL2             0.3220597732        8.5765946352       -3.0644253419  CLST      25              1.0000000000
       126        26  DCM       C               1.6120632845       -5.3033519259      -11.2644443173  CLST      26              1.0000000000
       127        26  DCM       H1              1.0493598523       -6.1785995338      -10.8763123621  CLST      26              1.0000000000
       128        26  DCM       H2              1.6066310983       -5.2841889500      -12.3745144999  CLST      26              1.0000000000
       129        26  DCM       CL1             0.8508160065       -3.8050007274      -10.6550299175  CLST      26              1.0000000000
       130        26  DCM       CL2             3.3033089918       -5.4037249057      -10.6943424339  CLST      26              1.0000000000
       131        27  DCM       C              -8.6792262273       -6.8939294612       -6.3942845337  CLST      27              1.0000000000
       132        27  DCM       H1             -8.6499828531       -6.6010185438       -5.3234662603  CLST      27              1.0000000000
       133        27  DCM       H2             -8.9514046384       -7.9648080959       -6.5055927834  CLST      27              1.0000000000
       134        27  DCM       CL1            -9.8954720804       -5.8899714983       -7.2358065220  CLST      27              1.0000000000
       135        27  DCM       CL2            -7.0646328072       -6.6269320795       -7.1158071726  CLST      27              1.0000000000
       136        28  DCM       C              12.6599023599       -5.3299463180        1.0555122967  CLST      28              1.0000000000
       137        28  DCM       H1             12.4823326178       -4.2353056652        1.1131403200  CLST      28              1.0000000000
       138        28  DCM       H2             13.7444266567       -5.5528913265        0.9718205339  CLST      28              1.0000000000
       139        28  DCM       CL1            12.0190743731       -6.1026737405        2.5346462092  CLST      28              1.0000000000
       140        28  DCM       CL2            11.8174378508       -5.9809044290       -0.3808505574  CLST      28              1.0000000000
       141        29  DCM       C              -1.9335190550       -8.3625298933       -6.1028440288  CLST      29              1.0000000000
       142        29  DCM       H1             -1.7982107782       -9.1341807883       -5.3161550728  CLST      29              1.0000000000
       143        29  DCM       H2             -1.6005402945       -8.7400444390       -7.0928641304  CLST      29              1.0000000000
       144        29  DCM       CL1            -3.6639159449       -7.9247211671       -6.1927552273  CLST      29              1.0000000000
       145        29  DCM       CL2            -0.9662899285       -6.9218892864       -5.6768279329  CLST      29              1.0000000000
       146        30  DCM       C              12.1620863835        3.5059414748       -4.2676514783  CLST      30              1.0000000000
       147        30  DCM       H1             13.1416865677        2.9942839323       -4.1492699416  CLST      30              1.0000000000
       148        30  DCM       H2             11.9451548039        3.7113391395       -5.3376627226  CLST      30              1.0000000000
       149        30  DCM       CL1            10.8767469701        2.4594339235       -3.6052225061  CLST      30              1.0000000000
       150        30  DCM       CL2            12.2038451241        5.0529703945       -3.3732721822  CLST      30              1.0000000000
       151        31  DCM       C             -13.5146732292        2.2621942381        1.1217902135  CLST      31              1.0000000000
       152        31  DCM       H1            -13.4991259088        2.2644728640        0.0121997871  CLST      31              1.0000000000
       153        31  DCM       H2            -14.4913692413        1.9027992029        1.5076104326  CLST      31              1.0000000000
       154        31  DCM       CL1           -12.2248291447        1.1802845723        1.7129263824  CLST      31              1.0000000000
       155        31  DCM       CL2           -13.2320634153        3.9210429988        1.7217945622  CLST      31              1.0000000000
       156        32  DCM       C               6.9525078545       -1.1193503845       -8.1919310440  CLST      32              1.0000000000
       157        32  DCM       H1              5.9710762152       -0.5998591131       -8.1864125566  CLST      32              1.0000000000
       158        32  DCM       H2              7.7504180953       -0.4629178383       -7.7913712807  CLST      32              1.0000000000
       159        32  DCM       CL1             6.8419463078       -2.5882664950       -7.1786982931  CLST      32              1.0000000000
       160        32  DCM       CL2             7.3697292892       -1.5678319281       -9.8704320960  CLST      32              1.0000000000
       161        33  DCM       C               2.7386805914       -3.0367436314        1.2290641041  CLST      33              1.0000000000
       162        33  DCM       H1              2.2567774622       -4.0103178422        1.4481323708  CLST      33              1.0000000000
       163        33  DCM       H2              3.5440461348       -3.1621527096        0.4767847830  CLST      33              1.0000000000
       164        33  DCM       CL1             1.5138103278       -1.9057311475        0.5853649572  CLST      33              1.0000000000
       165        33  DCM       CL2             3.4366290691       -2.3826084606        2.7384858334  CLST      33              1.0000000000
       166        34  DCM       C              -5.4420227866        4.9343654647       -5.2145225298  CLST      34              1.0000000000
       167        34  DCM       H1             -5.4780686075        5.8586918645       -5.8285536948  CLST      34              1.0000000000
       168        34  DCM       H2             -5.0779930547        5.1523387316       -4.1880144864  CLST      34              1.0000000000
       169        34  DCM       CL1            -7.0850729353        4.2376027336       -5.1129706982  CLST      34              1.0000000000
       170        34  DCM       CL2            -4.3357580189        3.7650527684       -5.9912416895  CLST      34              1.0000000000
       171        35  DCM       C              -4.6132079874        9.4374561330       -2.6172481941  CLST      35              1.0000000000
       172        35  DCM       H1             -5.4239938627       10.1932726315       -2.5834658940  CLST      35              1.0000000000
       173        35  DCM       H2             -4.5797908030        8.8551907472       -1.6725746740  CLST      35              1.0000000000
       174        35  DCM       CL1            -3.0510625062       10.2745093197       -2.8457800524  CLST      35              1.0000000000
       175        35  DCM       CL2            -4.9167987267        8.3297202479       -3.9871596459  CLST      35              1.0000000000
       176        36  DCM       C              -4.1785471978       -5.6489596197        0.5963705612  CLST      36              1.0000000000
       177        36  DCM       H1             -5.1559073503       -5.6061570189        0.0718303244  CLST      36              1.0000000000
       178        36  DCM       H2             -3.4321367779       -6.2219597513        0.0068578723  CLST      36              1.0000000000
       179        36  DCM       CL1            -3.5762804794       -3.9827378112        0.8273705293  CLST      36              1.0000000000
       180        36  DCM       CL2            -4.4049031317       -6.4397627060        2.1823082500  CLST      36              1.0000000000
       181        37  DCM       C               2.0472832425        9.5853528069        0.5169247634  CLST      37              1.0000000000
       182        37  DCM       H1              3.1072824585        9.5162553203        0.1925196775  CLST      37              1.0000000000
       183        37  DCM       H2              1.4972723868        8.6510487998        0.2794168664  CLST      37              1.0000000000
       184        37  DCM       CL1             1.9942849153        9.8617208708        2.2812851432  CLST      37              1.0000000000
       185        37  DCM       CL2             1.2639533084       10.9500785761       -0.3300602726  CLST      37              1.0000000000
       186        38  DCM       C              -8.3612804926        7.4001244921       -2.8523340548  CLST      38              1.0000000000
       187        38  DCM       H1             -9.4276255972        7.1219243949       -2.7212030799  CLST      38              1.0000000000
       188        38  DCM       H2             -8.1057788369        7.5037120195       -3.9287266565  CLST      38              1.0000000000
       189        38  DCM       CL1            -8.0688175495        8.9574982287       -2.0260857554  CLST      38              1.0000000000
       190        38  DCM       CL2            -7.3397336629        6.1270258554       -2.1254502584  CLST      38              1.0000000000
       191        39  DCM       C              -5.4736872855       12.3941857354       -4.9508580389  CLST      39              1.0000000000
       192        39  DCM       H1             -4.9851777426       12.5188246554       -3.9616509995  CLST      39              1.0000000000
       193        39  DCM       H2             -5.7168606889       13.3796718128       -5.4027999583  CLST      39              1.0000000000
       194        39  DCM       CL1            -4.3638234037       11.5133905461       -6.0413004854  CLST      39              1.0000000000
       195        39  DCM       CL2            -6.9847567530       11.4609303338       -4.7428630821  CLST      39              1.0000000000
       196        40  DCM       C             -13.5312991414        0.6734166205        5.7721661938  CLST      40              1.0000000000
       197        40  DCM       H1            -13.5428409297        1.2922517468        6.6941004393  CLST      40              1.0000000000
       198        40  DCM       H2            -13.8779069948       -0.3601414347        5.9809439922  CLST      40              1.0000000000
       199        40  DCM       CL1           -14.6152483913        1.4110376003        4.5574260471  CLST      40              1.0000000000
       200        40  DCM       CL2           -11.8612490036        0.6096236259        5.1393051460  CLST      40              1.0000000000
       201        41  DCM       C              -1.3085494665        7.8067628577        1.7868067287  CLST      41              1.0000000000
       202        41  DCM       H1             -1.9564050543        8.1813304190        2.6053502220  CLST      41              1.0000000000
       203        41  DCM       H2             -0.2364739276        7.9142175201        2.0503007231  CLST      41              1.0000000000
       204        41  DCM       CL1            -1.6405826381        8.7433395703        0.3030885645  CLST      41              1.0000000000
       205        41  DCM       CL2            -1.6732627264        6.0818875215        1.5151373053  CLST      41              1.0000000000
       206        42  DCM       C             -10.0017421547       -2.8081910810       -0.9626417226  CLST      42              1.0000000000
       207        42  DCM       H1            -11.0571749215       -3.1459090004       -1.0221595087  CLST      42              1.0000000000
       208        42  DCM       H2             -9.3047375383       -3.6728567660       -0.9845247041  CLST      42              1.0000000000
       209        42  DCM       CL1            -9.6534621559       -1.7444194042       -2.3550717103  CLST      42              1.0000000000
       210        42  DCM       CL2            -9.7689269056       -1.9048510508        0.5607436356  CLST      42              1.0000000000
       211        43  DCM       C              -0.9625707380        2.6957210970        0.7864936494  CLST      43              1.0000000000
       212        43  DCM       H1             -1.7127376862        2.9938505155        1.5483493632  CLST      43              1.0000000000
       213        43  DCM       H2              0.0393371219        3.0953320029        1.0392800882  CLST      43              1.0000000000
       214        43  DCM       CL1            -1.4456288222        3.3550833707       -0.7975261960  CLST      43              1.0000000000
       215        43  DCM       CL2            -0.8886993954        0.9122145994        0.7040680455  CLST      43              1.0000000000
       216        44  DCM       C               8.6071970571       -4.3974030379       -3.3726129646  CLST      44              1.0000000000
       217        44  DCM       H1              8.6613142199       -5.4814032664       -3.6080641189  CLST      44              1.0000000000
       218        44  DCM       H2              7.6617067160       -3.9528338941       -3.7488381341  CLST      44              1.0000000000
       219        44  DCM       CL1             8.6917136951       -4.1846546627       -1.6002042255  CLST      44              1.0000000000
       220        44  DCM       CL2             9.9819517865       -3.5627546756       -4.1492577864  CLST      44              1.0000000000
       221        45  DCM       C              10.0676389492        2.6538413864        0.0791620053  CLST      45              1.0000000000
       222        45  DCM       H1              9.0401971579        2.7896354677        0.4736312995  CLST      45              1.0000000000
       223        45  DCM       H2             10.0461339898        2.1816492126       -0.9230071303  CLST      45              1.0000000000
       224        45  DCM       CL1            10.8649641788        4.2455040360       -0.0480822621  CLST      45              1.0000000000
       225        45  DCM       CL2            10.9805484710        1.6090733432        1.1999758007  CLST      45              1.0000000000
       226        46  DCM       C              -4.0059501516        2.0242307705       -2.8927232820  CLST      46              1.0000000000
       227        46  DCM       H1             -3.1534364045        2.7094688938       -3.0773165101  CLST      46              1.0000000000
       228        46  DCM       H2             -4.3795775943        1.5947111912       -3.8450382952  CLST      46              1.0000000000
       229        46  DCM       CL1            -3.4726937675        0.6938830795       -1.8265812235  CLST      46              1.0000000000
       230        46  DCM       CL2            -5.3244391557        2.9344951900       -2.1052477804  CLST      46              1.0000000000
       231        47  DCM       C               7.5583865545      -11.7147061724        7.6742419912  CLST      47              1.0000000000
       232        47  DCM       H1              6.5445084976      -11.4260539949        7.3240207033  CLST      47              1.0000000000
       233        47  DCM       H2              7.5388007421      -12.0389360401        8.7362673307  CLST      47              1.0000000000
       234        47  DCM       CL1             8.1599570590      -13.0630436401        6.6660850987  CLST      47              1.0000000000
       235        47  DCM       CL2             8.6488656159      -10.3074513912        7.5179274865  CLST      47              1.0000000000
       236        48  DCM       C              14.4099780129        3.6808666691       -0.1035351781  CLST      48              1.0000000000
       237        48  DCM       H1             13.8123302264        4.5951217496       -0.3049528254  CLST      48              1.0000000000
       238        48  DCM       H2             15.4887842506        3.8581207237       -0.2973004577  CLST      48              1.0000000000
       239        48  DCM       CL1            14.1970105831        3.2135302370        1.6093666230  CLST      48              1.0000000000
       240        48  DCM       CL2            13.8365005673        2.3652719576       -1.1704693999  CLST      48              1.0000000000
       241        49  DCM       C             -16.2713763570       -3.8789823567        0.5302842518  CLST      49              1.0000000000
       242        49  DCM       H1            -16.0000158820       -4.9513659415        0.4321628483  CLST      49              1.0000000000
       243        49  DCM       H2            -15.8528245635       -3.4455390548        1.4628062367  CLST      49              1.0000000000
       244        49  DCM       CL1           -15.6187318226       -2.9845502222       -0.8728228418  CLST      49              1.0000000000
       245        49  DCM       CL2           -18.0515632200       -3.7253050831        0.5711236613  CLST      49              1.0000000000
       246        50  DCM       C              -2.7507241343       -2.1250160810        3.7742937723  CLST      50              1.0000000000
       247        50  DCM       H1             -2.0315864898       -2.2807164071        2.9417436665  CLST      50              1.0000000000
       248        50  DCM       H2             -2.2879593615       -1.5406051677        4.5964309370  CLST      50              1.0000000000
       249        50  DCM       CL1            -4.1701100924       -1.2372848817        3.1573070413  CLST      50              1.0000000000
       250        50  DCM       CL2            -3.2676892127       -3.7118524839        4.4093741532  CLST      50              1.0000000000
       251        51  DCM       C               3.6752229983        5.8724160168        2.7921863065  CLST      51              1.0000000000
       252        51  DCM       H1              3.9484016073        4.8414291880        2.4845095170  CLST      51              1.0000000000
       253        51  DCM       H2              4.0141589120        6.0770940489        3.8283542301  CLST      51              1.0000000000
       254        51  DCM       CL1             4.4464847262        7.0427240452        1.6844465044  CLST      51              1.0000000000
       255        51  DCM       CL2             1.9011099769        6.0561606443        2.7181280327  CLST      51              1.0000000000
       256        52  DCM       C               4.9502549993       -5.6951874671       -1.9882628081  CLST      52              1.0000000000
       257        52  DCM       H1              5.9241252199       -6.1839503425       -2.2039072013  CLST      52              1.0000000000
       258        52  DCM       H2              4.1225852054       -6.1905359647       -2.5393035044  CLST      52              1.0000000000
       259        52  DCM       CL1             4.6278361793       -5.7939587602       -0.2369822532  CLST      52              1.0000000000
       260        52  DCM       CL2             5.0325934206       -3.9821660432       -2.4765222109  CLST      52              1.0000000000
       261        53  DCM       C               7.7955548231        5.2537327574       -6.7842590654  CLST      53              1.0000000000
       262        53  DCM       H1              7.8875696766        4.9716841567       -7.8541065717  CLST      53              1.0000000000
       263        53  DCM       H2              8.5333644808        6.0382071301       -6.5130326822  CLST      53              1.0000000000
       264        53  DCM       CL1             6.1459094048        5.8775376998       -6.4899921723  CLST      53              1.0000000000
       265        53  DCM       CL2             8.0880526937        3.8077400666       -5.7758268559  CLST      53              1.0000000000
       266        54  DCM       C              -3.1530662295       -4.1219592074       -4.2473189570  CLST      54              1.0000000000
       267        54  DCM       H1             -2.2588425821       -4.7689175941       -4.3555528284  CLST      54              1.0000000000
       268        54  DCM       H2             -2.8776918125       -3.0481443975       -4.2917930486  CLST      54              1.0000000000
       269        54  DCM       CL1            -4.3086070926       -4.4820387640       -5.5604143977  CLST      54              1.0000000000
       270        54  DCM       CL2            -3.9113324915       -4.4561368128       -2.6700735000  CLST      54              1.0000000000
       271        55  DCM       C               8.1424841852       -7.1489362580        5.6648419952  CLST      55              1.0000000000
       272        55  DCM       H1              7.6721135478       -6.3502017394        5.0560877218  CLST      55              1.0000000000
       273        55  DCM       H2              7.4385288224       -7.9902837450        5.8296427590  CLST      55              1.0000000000
       274        55  DCM       CL1             9.5868022909       -7.7574215725        4.8063930085  CLST      55              1.0000000000
       275        55  DCM       CL2             8.6112749205       -6.4737129984        7.2510792436  CLST      55              1.0000000000
       276        56  DCM       C              -3.0501872386       -9.1610204257       -1.8093172099  CLST      56              1.0000000000
       277        56  DCM       H1             -2.3046813646       -9.8106573164       -1.3034265675  CLST      56              1.0000000000
       278        56  DCM       H2             -3.8667359439       -8.8714426049       -1.1145313039  CLST      56              1.0000000000
       279        56  DCM       CL1            -3.7497526230      -10.0533246592       -3.1892898548  CLST      56              1.0000000000
       280        56  DCM       CL2            -2.2308912657       -7.6832757374       -2.3896391495  CLST      56              1.0000000000
       281        57  DCM       C              10.0786236197        8.1019260571       -0.2547211601  CLST      57              1.0000000000
       282        57  DCM       H1             10.6621879979        8.9513381090        0.1590191802  CLST      57              1.0000000000
       283        57  DCM       H2             10.3914474490        7.1424460880        0.2068842148  CLST      57              1.0000000000
       284        57  DCM       CL1            10.3499308912        8.0116767213       -2.0188102993  CLST      57              1.0000000000
       285        57  DCM       CL2             8.3431638997        8.3709938600        0.0792859885  CLST      57              1.0000000000
       286        58  DCM       C               6.4854951181       -1.4882818510       -0.2906249735  CLST      58              1.0000000000
       287        58  DCM       H1              6.8955518209       -1.9134930469       -1.2296807481  CLST      58              1.0000000000
       288        58  DCM       H2              7.1197512992       -0.6564581031        0.0780947001  CLST      58              1.0000000000
       289        58  DCM       CL1             4.8399563389       -0.8691655531       -0.6057340339  CLST      58              1.0000000000
       290        58  DCM       CL2             6.4319574633       -2.7731591746        0.9479299941  CLST      58              1.0000000000
       291        59  DCM       C              -6.7548882416       -0.1334482215       -4.2066914659  CLST      59              1.0000000000
       292        59  DCM       H1             -7.7161893059       -0.6855561347       -4.1675967674  CLST      59              1.0000000000
       293        59  DCM       H2             -6.7079884116        0.6364082448       -3.4109614041  CLST      59              1.0000000000
       294        59  DCM       CL1            -5.4111626332       -1.2840770156       -3.9755409470  CLST      59              1.0000000000
       295        59  DCM       CL2            -6.6029486979        0.6633047832       -5.7979556062  CLST      59              1.0000000000
       296        60  DCM       C               9.9866295006       -1.6174312948        1.9766864385  CLST      60              1.0000000000
       297        60  DCM       H1              9.1474830645       -1.1554479773        1.4168308833  CLST      60              1.0000000000
       298        60  DCM       H2             10.9593666423       -1.4031371124        1.4859878753  CLST      60              1.0000000000
       299        60  DCM       CL1            10.0096522866       -0.9590356718        3.6372173378  CLST      60              1.0000000000
       300        60  DCM       CL2             9.7445518639       -3.3830918431        2.0306459226  CLST      60              1.0000000000
       301        61  DCM       C               5.3959381217        2.4920687219       -1.9764107140  CLST      61              1.0000000000
       302        61  DCM       H1              5.2866732908        3.5149612390       -1.5615609627  CLST      61              1.0000000000
       303        61  DCM       H2              4.6137144311        1.8138231775       -1.5776557902  CLST      61              1.0000000000
       304        61  DCM       CL1             5.2425934864        2.5594430051       -3.7536508546  CLST      61              1.0000000000
       305        61  DCM       CL2             7.0007923757        1.8572096827       -1.5216488236  CLST      61              1.0000000000
       306        62  DCM       C               3.8580641319       -5.6758515069        4.0306150164  CLST      62              1.0000000000
       307        62  DCM       H1              4.6668282064       -5.0941174210        3.5390338103  CLST      62              1.0000000000
       308        62  DCM       H2              3.1658213889       -5.0085614173        4.5868086720  CLST      62              1.0000000000
       309        62  DCM       CL1             2.9362168430       -6.5502985855        2.7788991288  CLST      62              1.0000000000
       310        62  DCM       CL2             4.5852418311       -6.8432017401        5.1706455416  CLST      62              1.0000000000
       311        63  DCM       C               1.6489975195       -8.0458089080       -0.1959742371  CLST      63              1.0000000000
       312        63  DCM       H1              0.9900081809       -7.6432265268        0.5995284904  CLST      63              1.0000000000
       313        63  DCM       H2              2.7149243200       -7.9044906495        0.0695509150  CLST      63              1.0000000000
       314        63  DCM       CL1             1.3268123135       -9.7924235559       -0.3872086906  CLST      63              1.0000000000
       315        63  DCM       CL2             1.3216283036       -7.1854807798       -1.7276045307  CLST      63              1.0000000000
       316        64  DCM       C              -7.7754156808       -2.9893300568       -6.2574301581  CLST      64              1.0000000000
       317        64  DCM       H1             -6.8744570937       -2.3455623054       -6.3413378719  CLST      64              1.0000000000
       318        64  DCM       H2             -7.7882421954       -3.7532583492       -7.0623412830  CLST      64              1.0000000000
       319        64  DCM       CL1            -7.7618097057       -3.8110155378       -4.6700039125  CLST      64              1.0000000000
       320        64  DCM       CL2            -9.2405444064       -1.9743013414       -6.3955973303  CLST      64              1.0000000000
       321        65  DCM       C              -0.0854305572        2.5282172516       -4.0829526675  CLST      65              1.0000000000
       322        65  DCM       H1              0.1831574778        3.4700474812       -3.5597865834  CLST      65              1.0000000000
       323        65  DCM       H2             -0.8480875250        1.9611827516       -3.5091482625  CLST      65              1.0000000000
       324        65  DCM       CL1            -0.7355174849        2.9223137403       -5.7002639052  CLST      65              1.0000000000
       325        65  DCM       CL2             1.3768158544        1.5184445138       -4.2536019857  CLST      65              1.0000000000
       326        66  DCM       C               6.1603104961        0.0595674105        3.6898226298  CLST      66              1.0000000000
       327        66  DCM       H1              6.0859694995       -1.0003411277        3.3685631000  CLST      66              1.0000000000
       328        66  DCM       H2              5.1592877011        0.5384377136        3.7144399703  CLST      66              1.0000000000
       329        66  DCM       CL1             6.8675022978        0.1221537670        5.3290868336  CLST      66              1.0000000000
       330        66  DCM       CL2             7.2085092210        0.9445045625        2.5430446177  CLST      66              1.0000000000
       331        67  DCM       C              -2.0288670640        8.3874474475       -6.1465042065  CLST      67              1.0000000000
       332        67  DCM       H1             -2.0698524300        8.2224955842       -5.0495245533  CLST      67              1.0000000000
       333        67  DCM       H2             -2.9253713249        8.9386771860       -6.5002934234  CLST      67              1.0000000000
       334        67  DCM       CL1            -0.5687904997        9.3424352168       -6.5332621615  CLST      67              1.0000000000
       335        67  DCM       CL2            -1.9574840322        6.8037298607       -6.9730736222  CLST      67              1.0000000000
       336        68  DCM       C              -7.0640678276       -3.9341666463        2.6695399743  CLST      68              1.0000000000
       337        68  DCM       H1             -6.0465408572       -3.7548313290        2.2668198186  CLST      68              1.0000000000
       338        68  DCM       H2             -7.6077663109       -2.9774364234        2.8154690031  CLST      68              1.0000000000
       339        68  DCM       CL1            -7.9743564594       -4.9597207361        1.5232219702  CLST      68              1.0000000000
       340        68  DCM       CL2            -6.9174933635       -4.7721649592        4.2384383314  CLST      68              1.0000000000
       341        69  DCM       C               7.6294884568        2.2296712930      -10.3294185057  CLST      69              1.0000000000
       342        69  DCM       H1              6.8091417687        1.4877747954      -10.2342832774  CLST      69              1.0000000000
       343        69  DCM       H2              8.2297840840        2.0455573237      -11.2457022787  CLST      69              1.0000000000
       344        69  DCM       CL1             6.9197542855        3.8684420062      -10.4167681077  CLST      69              1.0000000000
       345        69  DCM       CL2             8.6950290834        2.1046348117       -8.8992830724  CLST      69              1.0000000000
       346        70  DCM       C               2.2160987071       10.7244789071        8.5557548718  CLST      70              1.0000000000
       347        70  DCM       H1              3.2067057566       10.2222153279        8.5559966606  CLST      70              1.0000000000
       348        70  DCM       H2              2.0557683175       11.2866296426        9.5005356982  CLST      70              1.0000000000
       349        70  DCM       CL1             2.1372350812       11.8646107076        7.1804149343  CLST      70              1.0000000000
       350        70  DCM       CL2             0.9393994961        9.4854711046        8.3878989241  CLST      70              1.0000000000
       351        71  DCM       C               3.6168238927        3.1422537149       -7.0368650163  CLST      71              1.0000000000
       352        71  DCM       H1              3.7582507776        4.2431767410       -7.0291229094  CLST      71              1.0000000000
       353        71  DCM       H2              3.4233151628        2.7577953493       -6.0143723318  CLST      71              1.0000000000
       354        71  DCM       CL1             2.2176217580        2.7455745749       -8.0741691674  CLST      71              1.0000000000
       355        71  DCM       CL2             5.0968280632        2.3726253213       -7.6789709381  CLST      71              1.0000000000
       356        72  DCM       C               3.1394736358       -0.5944817289       -9.4913458292  CLST      72              1.0000000000
       357        72  DCM       H1              2.1041420670       -0.6362260973       -9.8908650546  CLST      72              1.0000000000
       358        72  DCM       H2              3.1896908622        0.0323762248       -8.5768117727  CLST      72              1.0000000000
       359        72  DCM       CL1             3.6733202624       -2.2485175196       -9.0806439663  CLST      72              1.0000000000
       360        72  DCM       CL2             4.2170002464        0.1059076122      -10.7318059321  CLST      72              1.0000000000
       361        73  DCM       C             -11.9555774116        4.9590913216       -1.4670827869  CLST      73              1.0000000000
       362        73  DCM       H1            -12.8198385561        5.6092452744       -1.2122228204  CLST      73              1.0000000000
       363        73  DCM       H2            -12.1935253306        3.8910524554       -1.2851450212  CLST      73              1.0000000000
       364        73  DCM       CL1           -11.5491079718        5.1746943163       -3.1946416858  CLST      73              1.0000000000
       365        73  DCM       CL2           -10.5603285470        5.4214706046       -0.4486531098  CLST      73              1.0000000000
       366        74  DCM       C               2.6584932341        1.3854497513        1.9937886691  CLST      74              1.0000000000
       367        74  DCM       H1              1.9992358989        1.1431513055        1.1342860626  CLST      74              1.0000000000
       368        74  DCM       H2              2.9135761497        0.4701489698        2.5663353045  CLST      74              1.0000000000
       369        74  DCM       CL1             4.1605952337        2.1257837485        1.3841221215  CLST      74              1.0000000000
       370        74  DCM       CL2             1.8248706754        2.5349459041        3.0765531993  CLST      74              1.0000000000
       371        75  DCM       C              -6.0516142813       -1.3161756141        0.0658927090  CLST      75              1.0000000000
       372        75  DCM       H1             -6.3344904289       -1.5056490584        1.1215372624  CLST      75              1.0000000000
       373        75  DCM       H2             -4.9643411024       -1.1093179682       -0.0246574180  CLST      75              1.0000000000
       374        75  DCM       CL1            -6.4568787217       -2.7530469985       -0.9121630430  CLST      75              1.0000000000
       375        75  DCM       CL2            -6.9674657988        0.0954992887       -0.5258462496  CLST      75              1.0000000000
       376        76  DCM       C              -8.8019973503        1.2008452964        2.5753875317  CLST      76              1.0000000000
       377        76  DCM       H1             -9.2123398934        0.6520146400        1.7027866061  CLST      76              1.0000000000
       378        76  DCM       H2             -9.5857757294        1.3728392000        3.3423479183  CLST      76              1.0000000000
       379        76  DCM       CL1            -7.4783643294        0.2413296837        3.2990218536  CLST      76              1.0000000000
       380        76  DCM       CL2            -8.1819896735        2.7801683300        2.0144777912  CLST      76              1.0000000000
       381        77  DCM       C               5.1668471569      -10.1732296786       -0.3384082117  CLST      77              1.0000000000
       382        77  DCM       H1              6.2167063034      -10.5277281325       -0.4160810130  CLST      77              1.0000000000
       383        77  DCM       H2              4.4627156315      -11.0230764625       -0.2131675841  CLST      77              1.0000000000
       384        77  DCM       CL1             5.0289687724       -9.0979395306        1.0809251995  CLST      77              1.0000000000
       385        77  DCM       CL2             4.7421590162       -9.2782410924       -1.8273226012  CLST      77              1.0000000000
       386        78  DCM       C              -2.8729124287        0.1011202043       -6.4343508001  CLST      78              1.0000000000
       387        78  DCM       H1             -3.6892874444        0.8186398935       -6.2109722389  CLST      78              1.0000000000
       388        78  DCM       H2             -2.1221434665        0.5521637508       -7.1170194884  CLST      78              1.0000000000
       389        78  DCM       CL1            -2.0715823333       -0.3581178850       -4.9053911248  CLST      78              1.0000000000
       390        78  DCM       CL2            -3.5682620886       -1.3498814333       -7.2096254849  CLST      78              1.0000000000
       391        79  DCM       C              -6.2038554982       -7.0431979369       -3.3275590536  CLST      79              1.0000000000
       392        79  DCM       H1             -5.1698136282       -7.2493031882       -2.9806043696  CLST      79              1.0000000000
       393        79  DCM       H2             -6.1962027660       -6.3679559903       -4.2082244813  CLST      79              1.0000000000
       394        79  DCM       CL1            -6.9854583550       -8.5853125173       -3.7787549112  CLST      79              1.0000000000
       395        79  DCM       CL2            -7.1205746291       -6.2654451374       -2.0050229234  CLST      79              1.0000000000
       396        80  DCM       C               8.5657448526       -6.8167529744        1.1142855969  CLST      80              1.0000000000
       397        80  DCM       H1              9.2306716049       -7.5284433908        1.6474514715  CLST      80              1.0000000000
       398        80  DCM       H2              9.1100797348       -5.8869380947        0.8524451862  CLST      80              1.0000000000
       399        80  DCM       CL1             7.1859831007       -6.4013440188        2.1712750693  CLST      80              1.0000000000
       400        80  DCM       CL2             7.9772632482       -7.5788641332       -0.3918979099  CLST      80              1.0000000000
       401        81  DCM       C             -17.3339938089        0.1223808747        0.3083791837  CLST      81              1.0000000000
       402        81  DCM       H1            -18.1315196311        0.8355705607        0.6054516206  CLST      81              1.0000000000
       403        81  DCM       H2            -17.7649942921       -0.7907798298       -0.1537869319  CLST      81              1.0000000000
       404        81  DCM       CL1           -16.2557498976        0.9155050135       -0.8751322762  CLST      81              1.0000000000
       405        81  DCM       CL2           -16.4019178365       -0.3438573430        1.7600386465  CLST      81              1.0000000000
       406        82  DCM       C             -11.1445191826       -1.7800518624        7.8359428111  CLST      82              1.0000000000
       407        82  DCM       H1            -10.5061999408       -2.4655941543        8.4325189682  CLST      82              1.0000000000
       408        82  DCM       H2            -10.6155639459       -1.4451372799        6.9191495617  CLST      82              1.0000000000
       409        82  DCM       CL1           -12.6413084038       -2.6362184289        7.3635831597  CLST      82              1.0000000000
       410        82  DCM       CL2           -11.5514941999       -0.3477570204        8.8252980213  CLST      82              1.0000000000
       411        83  DCM       C               0.9508785598       -9.8852044901       -4.0942864486  CLST      83              1.0000000000
       412        83  DCM       H1              0.5522597380       -8.8518112993       -4.0218875041  CLST      83              1.0000000000
       413        83  DCM       H2              1.9138940215       -9.9784342450       -3.5486802832  CLST      83              1.0000000000
       414        83  DCM       CL1            -0.2371235103      -11.0156542129       -3.3848480074  CLST      83              1.0000000000
       415        83  DCM       CL2             1.2106408309      -10.2879945220       -5.8153691001  CLST      83              1.0000000000
       416        84  DCM       C              -4.6761803421        3.6224778045        1.4651649459  CLST      84              1.0000000000
       417        84  DCM       H1             -3.8450824629        4.0552548229        0.8712974498  CLST      84              1.0000000000
       418        84  DCM       H2             -5.6595705878        3.9214194847        1.0449840455  CLST      84              1.0000000000
       419        84  DCM       CL1            -4.5438640534        1.8429581276        1.4300539247  CLST      84              1.0000000000
       420        84  DCM       CL2            -4.5538288172        4.2006775301        3.1521612490  CLST      84              1.0000000000
       421        85  DCM       C               2.6679273547      -10.1439759638        3.7742952720  CLST      85              1.0000000000
       422        85  DCM       H1              3.3965086109       -9.3412844564        3.5368791839  CLST      85              1.0000000000
       423        85  DCM       H2              2.6985978860      -10.3998783186        4.8544348180  CLST      85              1.0000000000
       424        85  DCM       CL1             1.0247242870       -9.5832095351        3.3545902721  CLST      85              1.0000000000
       425        85  DCM       CL2             3.0717460729      -11.5987136128        2.8163386682  CLST      85              1.0000000000
       426        86  DCM       C              -6.1168547252       11.4784586121        0.3663216287  CLST      86              1.0000000000
       427        86  DCM       H1             -6.5229228402       12.0133667140        1.2507175302  CLST      86              1.0000000000
       428        86  DCM       H2             -6.6406467809       10.5114947569        0.2103708665  CLST      86              1.0000000000
       429        86  DCM       CL1            -6.3362726199       12.5012119987       -1.0838368926  CLST      86              1.0000000000
       430        86  DCM       CL2            -4.3763914213       11.1657571580        0.6266537199  CLST      86              1.0000000000
       431        87  DCM       C               7.7946377076      -10.9367680336        3.8101708999  CLST      87              1.0000000000
       432        87  DCM       H1              8.6120921286      -10.6738065108        4.5145316173  CLST      87              1.0000000000
       433        87  DCM       H2              7.6508623804      -12.0365867245        3.7585921774  CLST      87              1.0000000000
       434        87  DCM       CL1             8.2165145474      -10.3300580620        2.1837833973  CLST      87              1.0000000000
       435        87  DCM       CL2             6.2754431959      -10.1788077133        4.3692070800  CLST      87              1.0000000000
       436        88  DCM       C              -2.3801768643       -9.9467205329        2.1411391834  CLST      88              1.0000000000
       437        88  DCM       H1             -2.4050987263       -9.7562012068        3.2348019600  CLST      88              1.0000000000
       438        88  DCM       H2             -1.7539391130      -10.8334034334        1.9056017395  CLST      88              1.0000000000
       439        88  DCM       CL1            -4.0466540496      -10.2327451280        1.5633273206  CLST      88              1.0000000000
       440        88  DCM       CL2            -1.6946085647       -8.5174645019        1.3189061902  CLST      88              1.0000000000
       441        89  DCM       C              -3.0976758700        1.6877846953        5.5268014928  CLST      89              1.0000000000
       442        89  DCM       H1             -4.1266063208        1.4042402921        5.2191682005  CLST      89              1.0000000000
       443        89  DCM       H2             -3.0754978493        2.7063905590        5.9684543478  CLST      89              1.0000000000
       444        89  DCM       CL1            -2.4975502539        0.5159563915        6.7345340268  CLST      89              1.0000000000
       445        89  DCM       CL2            -2.0390358644        1.6614586507        4.0910320240  CLST      89              1.0000000000
       446        90  DCM       C               6.9145647334        5.9283253196       -2.9679427473  CLST      90              1.0000000000
       447        90  DCM       H1              7.2757952140        6.8289300146       -3.5078042557  CLST      90              1.0000000000
       448        90  DCM       H2              6.3378090366        5.2616450613       -3.6420303190  CLST      90              1.0000000000
       449        90  DCM       CL1             5.8606797062        6.4374118347       -1.6213670940  CLST      90              1.0000000000
       450        90  DCM       CL2             8.3185972957        5.0301004022       -2.3289584299  CLST      90              1.0000000000
       451        91  DCM       C               1.2380013698       -0.8242104497        5.5061235879  CLST      91              1.0000000000
       452        91  DCM       H1              0.5407552383       -0.4147358459        6.2676503157  CLST      91              1.0000000000
       453        91  DCM       H2              1.4587043164       -1.8953298586        5.6925176286  CLST      91              1.0000000000
       454        91  DCM       CL1             0.4880944346       -0.6745467974        3.8938626126  CLST      91              1.0000000000
       455        91  DCM       CL2             2.7677120821        0.0972255360        5.5590638363  CLST      91              1.0000000000
       456        92  DCM       C               5.9120516524        3.7257416027        5.0697723469  CLST      92              1.0000000000
       457        92  DCM       H1              6.0120246510        3.5143872794        3.9841583047  CLST      92              1.0000000000
       458        92  DCM       H2              6.5617461548        3.0519227683        5.6672063385  CLST      92              1.0000000000
       459        92  DCM       CL1             6.3876667207        5.4194030250        5.3892036360  CLST      92              1.0000000000
       460        92  DCM       CL2             4.2117080543        3.4752958409        5.5539183490  CLST      92              1.0000000000
       461        93  DCM       C              -0.4959662179       10.4035612923        5.0043626952  CLST      93              1.0000000000
       462        93  DCM       H1              0.5022592302       10.8606319254        4.8387993810  CLST      93              1.0000000000
       463        93  DCM       H2             -0.9427245657       10.7555995418        5.9584873425  CLST      93              1.0000000000
       464        93  DCM       CL1            -1.5713519769       10.8623222476        3.6513306811  CLST      93              1.0000000000
       465        93  DCM       CL2            -0.3167041656        8.6256192194        5.0676069170  CLST      93              1.0000000000
       466        94  DCM       C               8.0103107115        5.2799739051        2.0672823106  CLST      94              1.0000000000
       467        94  DCM       H1              8.7306574234        5.7245358368        1.3500262076  CLST      94              1.0000000000
       468        94  DCM       H2              7.5203749582        6.0676252589        2.6775886055  CLST      94              1.0000000000
       469        94  DCM       CL1             6.7616059584        4.3922059512        1.1525466505  CLST      94              1.0000000000
       470        94  DCM       CL2             8.8875360713        4.1548903122        3.1447135246  CLST      94              1.0000000000
       471        95  DCM       C               2.6330742534        4.8123738340       -0.8481585212  CLST      95              1.0000000000
       472        95  DCM       H1              3.1520653416        4.7890446885        0.1317060426  CLST      95              1.0000000000
       473        95  DCM       H2              3.3163604858        5.1503870011       -1.6538932297  CLST      95              1.0000000000
       474        95  DCM       CL1             2.0492329979        3.1711983966       -1.2325088170  CLST      95              1.0000000000
       475        95  DCM       CL2             1.2502821105        5.9366449222       -0.7586367018  CLST      95              1.0000000000
       476        96  DCM       C              11.0439118730        6.9831674987        4.0812275424  CLST      96              1.0000000000
       477        96  DCM       H1             10.6078963942        6.1416176422        4.6603328678  CLST      96              1.0000000000
       478        96  DCM       H2             11.7450543464        7.5762604725        4.7057938890  CLST      96              1.0000000000
       479        96  DCM       CL1            11.9327491131        6.3250338559        2.6765314056  CLST      96              1.0000000000
       480        96  DCM       CL2             9.7231153338        8.0485506670        3.5182635852  CLST      96              1.0000000000
       481        97  DCM       C               5.9747703890       11.7272808168        7.5081686444  CLST      97              1.0000000000
       482        97  DCM       H1              5.2832706559       11.7892222057        6.6410856824  CLST      97              1.0000000000
       483        97  DCM       H2              6.9842386099       12.1061136052        7.2425298262  CLST      97              1.0000000000
       484        97  DCM       CL1             5.3199160178       12.7125886754        8.8488031607  CLST      97              1.0000000000
       485        97  DCM       CL2             6.1112014394       10.0206471819        8.0237645074  CLST      97              1.0000000000
       486        98  DCM       C              11.3974965716       -0.8600131526       -1.9532199924  CLST      98              1.0000000000
       487        98  DCM       H1             11.4978141989       -0.9140121463       -3.0582221838  CLST      98              1.0000000000
       488        98  DCM       H2             11.9932120439       -0.0209120400       -1.5357033589  CLST      98              1.0000000000
       489        98  DCM       CL1             9.6781154053       -0.6140925191       -1.5422497867  CLST      98              1.0000000000
       490        98  DCM       CL2            11.9698774414       -2.3942070980       -1.2400755322  CLST      98              1.0000000000
