* PRE_MLPOT:MONOMER_REPACK
*  DATE:     6/28/26      2:33:28      CREATED BY USER: boittier
*
       490  EXT
         1         1  DCM       C               1.7058978043       -1.9684028211       -0.0590367380  CLST      1               1.0000000000
         2         1  DCM       H1              0.7111728730       -2.4204739202        0.1416963520  CLST      1               1.0000000000
         3         1  DCM       H2              2.1593273991       -1.5747392628        0.8751373780  CLST      1               1.0000000000
         4         1  DCM       CL1             2.7833929194       -3.2158887520       -0.7476574451  CLST      1               1.0000000000
         5         1  DCM       CL2             1.5118739745       -0.6280410880       -1.2243637874  CLST      1               1.0000000000
         6         2  DCM       C               0.9209277226        0.9278096803        0.9798504733  CLST      2               1.0000000000
         7         2  DCM       H1              1.9151961500        0.7551467818        0.5169353104  CLST      2               1.0000000000
         8         2  DCM       H2              0.1240335126        0.3811755576        0.4323222212  CLST      2               1.0000000000
         9         2  DCM       CL1             0.9614680739        0.3516133900        2.6704246870  CLST      2               1.0000000000
        10         2  DCM       CL2             0.5602846306        2.6781918513        0.9442515797  CLST      2               1.0000000000
        11         3  DCM       C              -1.5845495212        0.8045814698        1.3710313676  CLST      3               1.0000000000
        12         3  DCM       H1             -1.6020330189        1.8073405927        0.8939269409  CLST      3               1.0000000000
        13         3  DCM       H2             -1.7187658437        0.8818647084        2.4708169100  CLST      3               1.0000000000
        14         3  DCM       CL1            -2.9099845285       -0.1849280043        0.6920757539  CLST      3               1.0000000000
        15         3  DCM       CL2            -0.0109684700        0.0267661567        1.0309356872  CLST      3               1.0000000000
        16         4  DCM       C               1.9151403927        0.3861300565       -3.1781344339  CLST      4               1.0000000000
        17         4  DCM       H1              1.5211659206       -0.4372837531       -3.8111907428  CLST      4               1.0000000000
        18         4  DCM       H2              1.0873503753        0.9758741696       -2.7326683951  CLST      4               1.0000000000
        19         4  DCM       CL1             2.9108653705       -0.3071407860       -1.8668182643  CLST      4               1.0000000000
        20         4  DCM       CL2             2.9201433940        1.4587592930       -4.1932461084  CLST      4               1.0000000000
        21         5  DCM       C               1.0305630495       -0.7650300060        2.4971035363  CLST      5               1.0000000000
        22         5  DCM       H1              1.9183833604       -1.2668702137        2.0590291121  CLST      5               1.0000000000
        23         5  DCM       H2              0.1485589185       -0.8549117240        1.8291807166  CLST      5               1.0000000000
        24         5  DCM       CL1             1.4015807549        0.9664024662        2.7365517365  CLST      5               1.0000000000
        25         5  DCM       CL2             0.6548629511       -1.5320104371        4.0657455069  CLST      5               1.0000000000
        26         6  DCM       C              -1.4730367903       -2.6450967706       -1.8291170196  CLST      6               1.0000000000
        27         6  DCM       H1             -2.5808247409       -2.7172088824       -1.8112454484  CLST      6               1.0000000000
        28         6  DCM       H2             -1.0446867954       -3.2771910794       -2.6355493800  CLST      6               1.0000000000
        29         6  DCM       CL1            -1.0035369292       -0.9441389143       -2.1126769919  CLST      6               1.0000000000
        30         6  DCM       CL2            -0.8326213012       -3.1939088736       -0.2531905536  CLST      6               1.0000000000
        31         7  DCM       C              -0.6664597707        2.4369863155       -0.3671041130  CLST      7               1.0000000000
        32         7  DCM       H1             -0.4670695541        1.5148781377       -0.9523934532  CLST      7               1.0000000000
        33         7  DCM       H2             -0.3322236197        3.3403017681       -0.9178164506  CLST      7               1.0000000000
        34         7  DCM       CL1            -2.4216858753        2.5573319535       -0.0578467166  CLST      7               1.0000000000
        35         7  DCM       CL2             0.2184602883        2.3368360245        1.1816786688  CLST      7               1.0000000000
        36         8  DCM       C              -1.5447475829        1.4244675216        2.8787250627  CLST      8               1.0000000000
        37         8  DCM       H1             -2.4412555610        2.0190046646        3.1556892653  CLST      8               1.0000000000
        38         8  DCM       H2             -0.6358978880        1.8174093373        3.3812487903  CLST      8               1.0000000000
        39         8  DCM       CL1            -1.7941241164       -0.2768138997        3.3681461824  CLST      8               1.0000000000
        40         8  DCM       CL2            -1.3118482349        1.5105435784        1.1100222383  CLST      8               1.0000000000
        41         9  DCM       C              -1.4459742500        0.6831870623       -2.6028366109  CLST      9               1.0000000000
        42         9  DCM       H1             -2.2410766943        0.0522037014       -3.0525372747  CLST      9               1.0000000000
        43         9  DCM       H2             -0.9662525971        1.3211127209       -3.3724410271  CLST      9               1.0000000000
        44         9  DCM       CL1            -2.1679424002        1.7308617610       -1.3474373542  CLST      9               1.0000000000
        45         9  DCM       CL2            -0.2020897430       -0.3716016740       -1.8728920631  CLST      9               1.0000000000
        46        10  DCM       C               0.7807889396        2.2431545961        0.6125418579  CLST      10              1.0000000000
        47        10  DCM       H1              0.1485762938        1.9283835993       -0.2411739280  CLST      10              1.0000000000
        48        10  DCM       H2              0.3633971654        3.1465820820        1.1013390273  CLST      10              1.0000000000
        49        10  DCM       CL1             0.8455934348        0.9121318384        1.8030410078  CLST      10              1.0000000000
        50        10  DCM       CL2             2.4240689360        2.6121492898        0.0141135584  CLST      10              1.0000000000
        51        11  DCM       C              -1.5507851485        0.4738900994       -1.7627131824  CLST      11              1.0000000000
        52        11  DCM       H1             -2.1944304876        0.8329432038       -2.5939903681  CLST      11              1.0000000000
        53        11  DCM       H2             -1.3459344829        1.2908284328       -1.0404339874  CLST      11              1.0000000000
        54        11  DCM       CL1            -2.3838871384       -0.8586566734       -0.9118263153  CLST      11              1.0000000000
        55        11  DCM       CL2             0.0039818908       -0.1055576703       -2.4259191944  CLST      11              1.0000000000
        56        12  DCM       C              -2.2759016270        3.3518476268       -3.2186400713  CLST      12              1.0000000000
        57        12  DCM       H1             -1.8868658424        4.3267030788       -2.8544513874  CLST      12              1.0000000000
        58        12  DCM       H2             -2.6846812802        2.7464508903       -2.3823525648  CLST      12              1.0000000000
        59        12  DCM       CL1            -3.5778168602        3.6527208149       -4.4048202808  CLST      12              1.0000000000
        60        12  DCM       CL2            -0.9453868819        2.4465202120       -3.9964630705  CLST      12              1.0000000000
        61        13  DCM       C              -0.0727947145       -0.9183100966       -0.0530306123  CLST      13              1.0000000000
        62        13  DCM       H1             -0.7092124408       -0.0634637499        0.2616823066  CLST      13              1.0000000000
        63        13  DCM       H2             -0.4432717814       -1.8722962883        0.3764265331  CLST      13              1.0000000000
        64        13  DCM       CL1            -0.1002327978       -1.0359989505       -1.8349592664  CLST      13              1.0000000000
        65        13  DCM       CL2             1.6017800328       -0.6360329338        0.5053579351  CLST      13              1.0000000000
        66        14  DCM       C              -0.7721654614       -0.2634823409       -3.7331056914  CLST      14              1.0000000000
        67        14  DCM       H1             -0.0670170438        0.5493351132       -4.0051069304  CLST      14              1.0000000000
        68        14  DCM       H2             -1.1506082351       -0.7830015168       -4.6384163646  CLST      14              1.0000000000
        69        14  DCM       CL1             0.0772145907       -1.4455331636       -2.6952520658  CLST      14              1.0000000000
        70        14  DCM       CL2            -2.1550254505        0.4407990106       -2.8467218810  CLST      14              1.0000000000
        71        15  DCM       C              -0.5655676262       -0.5879629084        0.1923004566  CLST      15              1.0000000000
        72        15  DCM       H1             -0.5335047985       -1.5999892059        0.6478160534  CLST      15              1.0000000000
        73        15  DCM       H2              0.0466562788        0.1327292116        0.7750736070  CLST      15              1.0000000000
        74        15  DCM       CL1             0.0739164642       -0.6770860195       -1.4737728836  CLST      15              1.0000000000
        75        15  DCM       CL2            -2.2586600871       -0.0188204777        0.1618629137  CLST      15              1.0000000000
        76        16  DCM       C               0.1010083325        1.7855432018       -2.0951070625  CLST      16              1.0000000000
        77        16  DCM       H1              1.0210886881        2.2320784578       -2.5289785657  CLST      16              1.0000000000
        78        16  DCM       H2             -0.7116432371        2.5382584322       -2.0258715381  CLST      16              1.0000000000
        79        16  DCM       CL1             0.4643236163        1.1724012677       -0.4534459156  CLST      16              1.0000000000
        80        16  DCM       CL2            -0.4458180524        0.4433661297       -3.1402625722  CLST      16              1.0000000000
        81        17  DCM       C               2.5203499110        0.0672316468       -0.2782797034  CLST      17              1.0000000000
        82        17  DCM       H1              2.9796685347       -0.9184020033       -0.0529900941  CLST      17              1.0000000000
        83        17  DCM       H2              1.4330651221        0.0542721725       -0.0570758026  CLST      17              1.0000000000
        84        17  DCM       CL1             3.3089895563        1.3193820720        0.7247229923  CLST      17              1.0000000000
        85        17  DCM       CL2             2.7484457731        0.4376416630       -2.0112261569  CLST      17              1.0000000000
        86        18  DCM       C              -0.1517120406       -2.6564465278        1.5440392582  CLST      18              1.0000000000
        87        18  DCM       H1              0.7733966591       -2.5378125379        0.9423879633  CLST      18              1.0000000000
        88        18  DCM       H2             -0.1541498350       -1.9624517272        2.4110384727  CLST      18              1.0000000000
        89        18  DCM       CL1            -1.5673387042       -2.3042059036        0.5102881041  CLST      18              1.0000000000
        90        18  DCM       CL2            -0.2391677577       -4.3394658760        2.1409887173  CLST      18              1.0000000000
        91        19  DCM       C               0.0983713182        0.7126582937       -1.9116816388  CLST      19              1.0000000000
        92        19  DCM       H1              1.0413421253        1.2697199078       -1.7340253032  CLST      19              1.0000000000
        93        19  DCM       H2             -0.5484776039        1.2540828512       -2.6331984662  CLST      19              1.0000000000
        94        19  DCM       CL1             0.4903986042       -0.9012961032       -2.5732397405  CLST      19              1.0000000000
        95        19  DCM       CL2            -0.7711968586        0.5391325589       -0.3600673874  CLST      19              1.0000000000
        96        20  DCM       C               2.2627210154        0.6725992523        1.8298414152  CLST      20              1.0000000000
        97        20  DCM       H1              2.1751908648        1.7469246535        1.5649891301  CLST      20              1.0000000000
        98        20  DCM       H2              1.9806387021        0.5019336587        2.8900753757  CLST      20              1.0000000000
        99        20  DCM       CL1             1.1716116039       -0.2712957357        0.7759191193  CLST      20              1.0000000000
       100        20  DCM       CL2             3.9526565833        0.1435919233        1.5795161988  CLST      20              1.0000000000
       101        21  DCM       C              -1.6847873902        2.1638622241       -0.0913868452  CLST      21              1.0000000000
       102        21  DCM       H1             -0.6263006283        1.8614038423        0.0334942028  CLST      21              1.0000000000
       103        21  DCM       H2             -1.7793575251        3.2696596139       -0.0861760828  CLST      21              1.0000000000
       104        21  DCM       CL1            -2.2937691085        1.5287743497       -1.6465399120  CLST      21              1.0000000000
       105        21  DCM       CL2            -2.6422608616        1.4842530618        1.2543548227  CLST      21              1.0000000000
       106        22  DCM       C              -1.6573660835       -2.8439094334       -0.8789748168  CLST      22              1.0000000000
       107        22  DCM       H1             -1.2751700673       -3.8847382742       -0.8938123338  CLST      22              1.0000000000
       108        22  DCM       H2             -1.1503852087       -2.2269720108       -1.6492091584  CLST      22              1.0000000000
       109        22  DCM       CL1            -3.4117297146       -2.8662949210       -1.2099894917  CLST      22              1.0000000000
       110        22  DCM       CL2            -1.3517258463       -2.1347406486        0.7326279672  CLST      22              1.0000000000
       111        23  DCM       C               2.8454858249       -1.9225470730       -0.5964577918  CLST      23              1.0000000000
       112        23  DCM       H1              3.3850381409       -1.9529146708        0.3732945746  CLST      23              1.0000000000
       113        23  DCM       H2              1.7703503204       -1.6892690754       -0.4483848929  CLST      23              1.0000000000
       114        23  DCM       CL1             3.5810972079       -0.6649814055       -1.6271596810  CLST      23              1.0000000000
       115        23  DCM       CL2             2.9934786857       -3.5098941110       -1.4013504228  CLST      23              1.0000000000
       116        24  DCM       C              -0.6028776113       -2.4955894305       -2.6371529518  CLST      24              1.0000000000
       117        24  DCM       H1             -0.6100269835       -1.4221858773       -2.9117427648  CLST      24              1.0000000000
       118        24  DCM       H2              0.2108373082       -2.7143654953       -1.9163335205  CLST      24              1.0000000000
       119        24  DCM       CL1            -2.1651043354       -2.9188438226       -1.8867305104  CLST      24              1.0000000000
       120        24  DCM       CL2            -0.3504346625       -3.4647134200       -4.1118267501  CLST      24              1.0000000000
       121        25  DCM       C              -2.2031407276       -0.8685071174        1.4047715977  CLST      25              1.0000000000
       122        25  DCM       H1             -2.1916528300        0.2123030387        1.6601820062  CLST      25              1.0000000000
       123        25  DCM       H2             -2.0970396163       -1.0212448949        0.3102904545  CLST      25              1.0000000000
       124        25  DCM       CL1            -0.8478139452       -1.6790797710        2.2390147844  CLST      25              1.0000000000
       125        25  DCM       CL2            -3.7508623509       -1.5768512803        1.9461828903  CLST      25              1.0000000000
       126        26  DCM       C              -2.8275350743        0.7652563107        2.1149553413  CLST      26              1.0000000000
       127        26  DCM       H1             -3.3902385065       -0.1099912973        2.5030872965  CLST      26              1.0000000000
       128        26  DCM       H2             -2.8329672605        0.7844192866        1.0048851587  CLST      26              1.0000000000
       129        26  DCM       CL1            -3.5887823523        2.2636075092        2.7243697412  CLST      26              1.0000000000
       130        26  DCM       CL2            -1.1362893670        0.6648833309        2.6850572247  CLST      26              1.0000000000
       131        27  DCM       C              -0.6371398813       -1.6233487009        1.4593395484  CLST      27              1.0000000000
       132        27  DCM       H1             -0.6078965070       -1.3304377834        2.5301578218  CLST      27              1.0000000000
       133        27  DCM       H2             -0.9093182923       -2.6942273356        1.3480312987  CLST      27              1.0000000000
       134        27  DCM       CL1            -1.8533857344       -0.6193907379        0.6178175601  CLST      27              1.0000000000
       135        27  DCM       CL2             0.9774535389       -1.3563513192        0.7378169094  CLST      27              1.0000000000
       136        28  DCM       C               1.1865959891        3.0153097774       -0.4530043575  CLST      28              1.0000000000
       137        28  DCM       H1              1.0090262470        4.1099504303       -0.3953763341  CLST      28              1.0000000000
       138        28  DCM       H2              2.2711202858        2.7923647689       -0.5366961203  CLST      28              1.0000000000
       139        28  DCM       CL1             0.5457680022        2.2425823550        1.0261295551  CLST      28              1.0000000000
       140        28  DCM       CL2             0.3441314799        2.3643516664       -1.8893672116  CLST      28              1.0000000000
       141        29  DCM       C               2.3110201652        1.9398081258       -0.5752556234  CLST      29              1.0000000000
       142        29  DCM       H1              2.4463284420        1.1681572309        0.2114333327  CLST      29              1.0000000000
       143        29  DCM       H2              2.6439989256        1.5622935801       -1.5652757250  CLST      29              1.0000000000
       144        29  DCM       CL1             0.5806232752        2.3776168521       -0.6651668218  CLST      29              1.0000000000
       145        29  DCM       CL2             3.2782492917        3.3804487328       -0.1492395275  CLST      29              1.0000000000
       146        30  DCM       C               1.8451184287        1.8749621469       -2.7938809484  CLST      30              1.0000000000
       147        30  DCM       H1              2.8247186130        1.3633046044       -2.6754994116  CLST      30              1.0000000000
       148        30  DCM       H2              1.6281868492        2.0803598116       -3.8638921927  CLST      30              1.0000000000
       149        30  DCM       CL1             0.5597790153        0.8284545956       -2.1314519761  CLST      30              1.0000000000
       150        30  DCM       CL2             1.8868771693        3.4219910666       -1.8995016523  CLST      30              1.0000000000
       151        31  DCM       C               0.1167169707        1.8720674387       -2.6635977978  CLST      31              1.0000000000
       152        31  DCM       H1              0.1322642910        1.8743460646       -3.7731882242  CLST      31              1.0000000000
       153        31  DCM       H2             -0.8599790415        1.5126724035       -2.2777775786  CLST      31              1.0000000000
       154        31  DCM       CL1             1.4065610552        0.7901577729       -2.0724616289  CLST      31              1.0000000000
       155        31  DCM       CL2             0.3993267845        3.5309161994       -2.0635934491  CLST      31              1.0000000000
       156        32  DCM       C               1.4237892100        1.7639902550        2.1101403112  CLST      32              1.0000000000
       157        32  DCM       H1              0.4423575707        2.2834815264        2.1156587987  CLST      32              1.0000000000
       158        32  DCM       H2              2.2216994508        2.4204228012        2.5107000746  CLST      32              1.0000000000
       159        32  DCM       CL1             1.3132276633        0.2950741445        3.1233730621  CLST      32              1.0000000000
       160        32  DCM       CL2             1.8410106447        1.3155087114        0.4316392592  CLST      32              1.0000000000
       161        33  DCM       C              -0.5097921633        1.4613400415        2.8424669256  CLST      33              1.0000000000
       162        33  DCM       H1             -0.9916952925        0.4877658307        3.0615351923  CLST      33              1.0000000000
       163        33  DCM       H2              0.2955733802        1.3359309633        2.0901876046  CLST      33              1.0000000000
       164        33  DCM       CL1            -1.7346624269        2.5923525255        2.1987677787  CLST      33              1.0000000000
       165        33  DCM       CL2             0.1881563144        2.1154752124        4.3518886549  CLST      33              1.0000000000
       166        34  DCM       C               1.3238491268       -0.5233240229        3.2146255333  CLST      34              1.0000000000
       167        34  DCM       H1              1.2878033059        0.4010023769        2.6005943684  CLST      34              1.0000000000
       168        34  DCM       H2              1.6878788587       -0.3053507560        4.2411335768  CLST      34              1.0000000000
       169        34  DCM       CL1            -0.3192010220       -1.2200867540        3.3161773650  CLST      34              1.0000000000
       170        34  DCM       CL2             2.4301138945       -1.6926367192        2.4379063737  CLST      34              1.0000000000
       171        35  DCM       C              -2.3233819427       -2.3189943830       -0.1259490963  CLST      35              1.0000000000
       172        35  DCM       H1             -3.1341678179       -1.5631778844       -0.0921667961  CLST      35              1.0000000000
       173        35  DCM       H2             -2.2899647583       -2.9012597688        0.8187244239  CLST      35              1.0000000000
       174        35  DCM       CL1            -0.7612364614       -1.4819411962       -0.3544809545  CLST      35              1.0000000000
       175        35  DCM       CL2            -2.6269726820       -3.4267302680       -1.4958605481  CLST      35              1.0000000000
       176        36  DCM       C              -2.6255552447        2.3017276762        2.2467675657  CLST      36              1.0000000000
       177        36  DCM       H1             -3.6029153972        2.3445302771        1.7222273290  CLST      36              1.0000000000
       178        36  DCM       H2             -1.8791448248        1.7287275446        1.6572548768  CLST      36              1.0000000000
       179        36  DCM       CL1            -2.0232885263        3.9679494847        2.4777675338  CLST      36              1.0000000000
       180        36  DCM       CL2            -2.8519111786        1.5109245899        3.8327052545  CLST      36              1.0000000000
       181        37  DCM       C               2.2708895590       -1.8686096170       -2.6095095564  CLST      37              1.0000000000
       182        37  DCM       H1              3.3308887750       -1.9377071037       -2.9339146423  CLST      37              1.0000000000
       183        37  DCM       H2              1.7208787033       -2.8029136241       -2.8470174534  CLST      37              1.0000000000
       184        37  DCM       CL1             2.2178912318       -1.5922415532       -0.8451491767  CLST      37              1.0000000000
       185        37  DCM       CL2             1.4875596249       -0.5038838478       -3.4564945925  CLST      37              1.0000000000
       186        38  DCM       C               3.0241628731       -2.5066631106        0.8220576001  CLST      38              1.0000000000
       187        38  DCM       H1              1.9578177685       -2.7848632079        0.9531885749  CLST      38              1.0000000000
       188        38  DCM       H2              3.2796645288       -2.4030755833       -0.2543350017  CLST      38              1.0000000000
       189        38  DCM       CL1             3.3166258162       -0.9492893741        1.6483058995  CLST      38              1.0000000000
       190        38  DCM       CL2             4.0457097028       -3.7797617474        1.5489413965  CLST      38              1.0000000000
       191        39  DCM       C              -1.8321404283       -0.4623002300       -1.1552655019  CLST      39              1.0000000000
       192        39  DCM       H1             -1.3436308854       -0.3376613100       -0.1660584625  CLST      39              1.0000000000
       193        39  DCM       H2             -2.0753138317        0.5231858475       -1.6072074213  CLST      39              1.0000000000
       194        39  DCM       CL1            -0.7222765465       -1.3430954192       -2.2457079484  CLST      39              1.0000000000
       195        39  DCM       CL2            -3.3432098958       -1.3955556315       -0.9472705451  CLST      39              1.0000000000
       196        40  DCM       C               0.6688417974        1.2435958749       -2.4296083038  CLST      40              1.0000000000
       197        40  DCM       H1              0.6573000091        1.8624310011       -1.5076740583  CLST      40              1.0000000000
       198        40  DCM       H2              0.3222339440        0.2100378197       -2.2208305054  CLST      40              1.0000000000
       199        40  DCM       CL1            -0.4151074525        1.9812168547       -3.6443484505  CLST      40              1.0000000000
       200        40  DCM       CL2             2.3388919352        1.1798028803       -3.0624693516  CLST      40              1.0000000000
       201        41  DCM       C               1.4445269040       -0.7056987705       -1.9669026992  CLST      41              1.0000000000
       202        41  DCM       H1              0.7966713162       -0.3311312092       -1.1483592059  CLST      41              1.0000000000
       203        41  DCM       H2              2.5166024429       -0.5982441081       -1.7034087048  CLST      41              1.0000000000
       204        41  DCM       CL1             1.1124937325        0.2308779421       -3.4506208634  CLST      41              1.0000000000
       205        41  DCM       CL2             1.0798136441       -2.4305741067       -2.2385721226  CLST      41              1.0000000000
       206        42  DCM       C               1.1759460044        0.7811132876       -0.6625910227  CLST      42              1.0000000000
       207        42  DCM       H1              0.1205132377        0.4433953682       -0.7221088087  CLST      42              1.0000000000
       208        42  DCM       H2              1.8729506208       -0.0835523974       -0.6844740042  CLST      42              1.0000000000
       209        42  DCM       CL1             1.5242260033        1.8448849644       -2.0550210104  CLST      42              1.0000000000
       210        42  DCM       CL2             1.4087612535        1.6844533178        0.8607943355  CLST      42              1.0000000000
       211        43  DCM       C              -2.5400700942       -1.4816427678       -0.7757892852  CLST      43              1.0000000000
       212        43  DCM       H1             -3.2902370423       -1.1835133493       -0.0139335715  CLST      43              1.0000000000
       213        43  DCM       H2             -1.5381622342       -1.0820318619       -0.5230028464  CLST      43              1.0000000000
       214        43  DCM       CL1            -3.0231281783       -0.8222804941       -2.3598091306  CLST      43              1.0000000000
       215        43  DCM       CL2            -2.4661987515       -3.2651492655       -0.8582148891  CLST      43              1.0000000000
       216        44  DCM       C              -3.2151667726       -2.1837641247        1.0145886320  CLST      44              1.0000000000
       217        44  DCM       H1             -3.1610496098       -3.2677643531        0.7791374777  CLST      44              1.0000000000
       218        44  DCM       H2             -4.1606571137       -1.7391949808        0.6383634625  CLST      44              1.0000000000
       219        44  DCM       CL1            -3.1306501346       -1.9710157494        2.7869973712  CLST      44              1.0000000000
       220        44  DCM       CL2            -1.8404120432       -1.3491157624        0.2379438102  CLST      44              1.0000000000
       221        45  DCM       C              -2.0457707480       -1.4621407749       -1.8933801308  CLST      45              1.0000000000
       222        45  DCM       H1             -3.0732125393       -1.3263466936       -1.4989108365  CLST      45              1.0000000000
       223        45  DCM       H2             -2.0672757074       -1.9343329487       -2.8955492664  CLST      45              1.0000000000
       224        45  DCM       CL1            -1.2484455185        0.1295218747       -2.0206243982  CLST      45              1.0000000000
       225        45  DCM       CL2            -1.1328612262       -2.5069088181       -0.7725663354  CLST      45              1.0000000000
       226        46  DCM       C              -1.2558410607       -3.8623819887        0.9097898533  CLST      46              1.0000000000
       227        46  DCM       H1             -0.4033273136       -3.1771438654        0.7251966252  CLST      46              1.0000000000
       228        46  DCM       H2             -1.6294685034       -4.2919015680       -0.0425251600  CLST      46              1.0000000000
       229        46  DCM       CL1            -0.7225846766       -5.1927296797        1.9759319117  CLST      46              1.0000000000
       230        46  DCM       CL2            -2.5743300648       -2.9521175692        1.6972653549  CLST      46              1.0000000000
       231        47  DCM       C              -0.3507184841        3.1106655619        2.5194041077  CLST      47              1.0000000000
       232        47  DCM       H1             -1.3645965411        3.3993177394        2.1691828198  CLST      47              1.0000000000
       233        47  DCM       H2             -0.3703042966        2.7864356943        3.5814294473  CLST      47              1.0000000000
       234        47  DCM       CL1             0.2508520204        1.7623280943        1.5112472153  CLST      47              1.0000000000
       235        47  DCM       CL2             0.7397605773        4.5179203432        2.3630896031  CLST      47              1.0000000000
       236        48  DCM       C              -2.4152376738        1.8167009628        0.2146793878  CLST      48              1.0000000000
       237        48  DCM       H1             -3.0128854603        2.7309560434        0.0132617405  CLST      48              1.0000000000
       238        48  DCM       H2             -1.3364314361        1.9939550174        0.0209141081  CLST      48              1.0000000000
       239        48  DCM       CL1            -2.6282051035        1.3493645307        1.9275811888  CLST      48              1.0000000000
       240        48  DCM       CL2            -2.9887151193        0.5011062513       -0.8522548340  CLST      48              1.0000000000
       241        49  DCM       C              -0.1882628439       -1.0457107271        2.3126664399  CLST      49              1.0000000000
       242        49  DCM       H1              0.0830976312       -2.1180943119        2.2145450363  CLST      49              1.0000000000
       243        49  DCM       H2              0.2302889497       -0.6122674252        3.2451884248  CLST      49              1.0000000000
       244        49  DCM       CL1             0.4643816906       -0.1512785926        0.9095593462  CLST      49              1.0000000000
       245        49  DCM       CL2            -1.9684497068       -0.8920334535        2.3535058494  CLST      49              1.0000000000
       246        50  DCM       C              -2.3248943018        2.1801985490       -0.1810734667  CLST      50              1.0000000000
       247        50  DCM       H1             -1.6057566573        2.0244982230       -1.0136235724  CLST      50              1.0000000000
       248        50  DCM       H2             -1.8621295290        2.7646094624        0.6410636981  CLST      50              1.0000000000
       249        50  DCM       CL1            -3.7442802599        3.0679297484       -0.7980601977  CLST      50              1.0000000000
       250        50  DCM       CL2            -2.8418593801        0.5933621462        0.4540069143  CLST      50              1.0000000000
       251        51  DCM       C               2.4477151570        0.5103627683       -2.6767670260  CLST      51              1.0000000000
       252        51  DCM       H1              2.7208937660       -0.5206240606       -2.9844438155  CLST      51              1.0000000000
       253        51  DCM       H2              2.7866510707        0.7150408003       -1.6405991023  CLST      51              1.0000000000
       254        51  DCM       CL1             3.2189768849        1.6806707966       -3.7845068281  CLST      51              1.0000000000
       255        51  DCM       CL2             0.6736021356        0.6941073957       -2.7508252998  CLST      51              1.0000000000
       256        52  DCM       C               3.4963337522        3.2140869895        2.6180877608  CLST      52              1.0000000000
       257        52  DCM       H1              4.4702039728        2.7253241140        2.4024433676  CLST      52              1.0000000000
       258        52  DCM       H2              2.6686639583        2.7187384919        2.0670470645  CLST      52              1.0000000000
       259        52  DCM       CL1             3.1739149323        3.1153156964        4.3693683157  CLST      52              1.0000000000
       260        52  DCM       CL2             3.5786721736        4.9271084133        2.1298283580  CLST      52              1.0000000000
       261        53  DCM       C               0.2272767845        2.5450131006       -0.1339900171  CLST      53              1.0000000000
       262        53  DCM       H1              0.3192916380        2.2629644999       -1.2038375234  CLST      53              1.0000000000
       263        53  DCM       H2              0.9650864422        3.3294874733        0.1372363661  CLST      53              1.0000000000
       264        53  DCM       CL1            -1.4223686338        3.1688180429        0.1602768760  CLST      53              1.0000000000
       265        53  DCM       CL2             0.5197746551        1.0990204098        0.8744421924  CLST      53              1.0000000000
       266        54  DCM       C              -2.1490330834        2.1083660394       -2.6753306814  CLST      54              1.0000000000
       267        54  DCM       H1             -1.2548094360        1.4614076526       -2.7835645528  CLST      54              1.0000000000
       268        54  DCM       H2             -1.8736586663        3.1821808493       -2.7198047730  CLST      54              1.0000000000
       269        54  DCM       CL1            -3.3045739465        1.7482864828       -3.9884261221  CLST      54              1.0000000000
       270        54  DCM       CL2            -2.9072993454        1.7741884340       -1.0980852244  CLST      54              1.0000000000
       271        55  DCM       C              -1.6137067511       -0.8487583436        2.7350781132  CLST      55              1.0000000000
       272        55  DCM       H1             -2.0840773886       -0.0500238251        2.1263238398  CLST      55              1.0000000000
       273        55  DCM       H2             -2.3176621139       -1.6901058306        2.8998788769  CLST      55              1.0000000000
       274        55  DCM       CL1            -0.1693886455       -1.4572436581        1.8766291265  CLST      55              1.0000000000
       275        55  DCM       CL2            -1.1449160158       -0.1735350841        4.3213153616  CLST      55              1.0000000000
       276        56  DCM       C              -1.9216734382       -1.0624508635       -1.1911921632  CLST      56              1.0000000000
       277        56  DCM       H1             -1.1761675642       -1.7120877541       -0.6853015208  CLST      56              1.0000000000
       278        56  DCM       H2             -2.7382221435       -0.7728730427       -0.4964062572  CLST      56              1.0000000000
       279        56  DCM       CL1            -2.6212388225       -1.9547550969       -2.5711648081  CLST      56              1.0000000000
       280        56  DCM       CL2            -1.1023774653        0.4152938249       -1.7715141028  CLST      56              1.0000000000
       281        57  DCM       C               1.7078341696       -0.5924781317        1.2062948231  CLST      57              1.0000000000
       282        57  DCM       H1              2.2913985479        0.2569339202        1.6200351634  CLST      57              1.0000000000
       283        57  DCM       H2              2.0206579989       -1.5519581008        1.6679001980  CLST      57              1.0000000000
       284        57  DCM       CL1             1.9791414412       -0.6827274675       -0.5577943161  CLST      57              1.0000000000
       285        57  DCM       CL2            -0.0276255504       -0.3234103288        1.5403019717  CLST      57              1.0000000000
       286        58  DCM       C              -0.2549748295        0.7268383091       -0.4027287599  CLST      58              1.0000000000
       287        58  DCM       H1              0.1550818732        0.3016271132       -1.3417845344  CLST      58              1.0000000000
       288        58  DCM       H2              0.3792813516        1.5586620570       -0.0340090862  CLST      58              1.0000000000
       289        58  DCM       CL1            -1.9005136087        1.3459546070       -0.7178378203  CLST      58              1.0000000000
       290        58  DCM       CL2            -0.3085124843       -0.5580390145        0.8358262077  CLST      58              1.0000000000
       291        59  DCM       C              -0.0319950356       -3.2494435475        2.7835143114  CLST      59              1.0000000000
       292        59  DCM       H1             -0.9932960998       -3.8015514607        2.8226090100  CLST      59              1.0000000000
       293        59  DCM       H2              0.0149047945       -2.4795870812        3.5792443732  CLST      59              1.0000000000
       294        59  DCM       CL1             1.3117305728       -4.4000723416        3.0146648304  CLST      59              1.0000000000
       295        59  DCM       CL2             0.1199445082       -2.4526905428        1.1922501712  CLST      59              1.0000000000
       296        60  DCM       C               2.5017334463       -0.5176397008        2.6086366969  CLST      60              1.0000000000
       297        60  DCM       H1              1.6625870102       -0.0556563833        2.0487811418  CLST      60              1.0000000000
       298        60  DCM       H2              3.4744705880       -0.3033455184        2.1179381337  CLST      60              1.0000000000
       299        60  DCM       CL1             2.5247562323        0.1407559222        4.2691675962  CLST      60              1.0000000000
       300        60  DCM       CL2             2.2596558096       -2.2833002492        2.6625961811  CLST      60              1.0000000000
       301        61  DCM       C               1.9984879651        2.5338532910        0.8385387796  CLST      61              1.0000000000
       302        61  DCM       H1              1.8892231342        3.5567458082        1.2533885309  CLST      61              1.0000000000
       303        61  DCM       H2              1.2162642745        1.8556077467        1.2372937034  CLST      61              1.0000000000
       304        61  DCM       CL1             1.8451433298        2.6012275743       -0.9387013610  CLST      61              1.0000000000
       305        61  DCM       CL2             3.6033422190        1.8989942518        1.2933006700  CLST      61              1.0000000000
       306        62  DCM       C               2.1068355285       -2.2534578835        2.3479207042  CLST      62              1.0000000000
       307        62  DCM       H1              2.9155996030       -1.6717237976        1.8563394981  CLST      62              1.0000000000
       308        62  DCM       H2              1.4145927854       -1.5861677939        2.9041143598  CLST      62              1.0000000000
       309        62  DCM       CL1             1.1849882396       -3.1279049621        1.0962048166  CLST      62              1.0000000000
       310        62  DCM       CL2             2.8340132276       -3.4208081168        3.4879512294  CLST      62              1.0000000000
       311        63  DCM       C              -0.1054211805        2.3944712147        1.4720780240  CLST      63              1.0000000000
       312        63  DCM       H1             -0.7644105191        2.7970535959        2.2675807514  CLST      63              1.0000000000
       313        63  DCM       H2              0.9605056200        2.5357894731        1.7376031761  CLST      63              1.0000000000
       314        63  DCM       CL1            -0.4276063865        0.6478565668        1.2808435704  CLST      63              1.0000000000
       315        63  DCM       CL2            -0.4327903963        3.2547993429       -0.0595522697  CLST      63              1.0000000000
       316        64  DCM       C              -2.2178298606        2.0279077977        0.9663965712  CLST      64              1.0000000000
       317        64  DCM       H1             -1.3168712735        2.6716755491        0.8824888574  CLST      64              1.0000000000
       318        64  DCM       H2             -2.2306563752        1.2639795054        0.1614854463  CLST      64              1.0000000000
       319        64  DCM       CL1            -2.2042238855        1.2062223167        2.5538228168  CLST      64              1.0000000000
       320        64  DCM       CL2            -3.6829585862        3.0429365131        0.8282293990  CLST      64              1.0000000000
       321        65  DCM       C               2.3918725353       -0.0317756351       -1.3455824277  CLST      65              1.0000000000
       322        65  DCM       H1              2.6604605703        0.9100545945       -0.8224163436  CLST      65              1.0000000000
       323        65  DCM       H2              1.6292155675       -0.5988101351       -0.7717780227  CLST      65              1.0000000000
       324        65  DCM       CL1             1.7417856076        0.3623208537       -2.9628936654  CLST      65              1.0000000000
       325        65  DCM       CL2             3.8541189469       -1.0415483729       -1.5162317459  CLST      65              1.0000000000
       326        66  DCM       C               0.5449003259        0.2895256825        2.3250897425  CLST      66              1.0000000000
       327        66  DCM       H1              0.4705593294       -0.7703828557        2.0038302127  CLST      66              1.0000000000
       328        66  DCM       H2             -0.4561224690        0.7683959856        2.3497070830  CLST      66              1.0000000000
       329        66  DCM       CL1             1.2520921276        0.3521120390        3.9643539463  CLST      66              1.0000000000
       330        66  DCM       CL2             1.5930990509        1.1744628345        1.1783117304  CLST      66              1.0000000000
       331        67  DCM       C              -0.4370345013       -1.8169177061       -2.1015766085  CLST      67              1.0000000000
       332        67  DCM       H1             -0.4780198674       -1.9818695693       -1.0045969553  CLST      67              1.0000000000
       333        67  DCM       H2             -1.3335387623       -1.2656879676       -2.4553658254  CLST      67              1.0000000000
       334        67  DCM       CL1             1.0230420629       -0.8619299368       -2.4883345635  CLST      67              1.0000000000
       335        67  DCM       CL2            -0.3656514695       -3.4006352929       -2.9281460242  CLST      67              1.0000000000
       336        68  DCM       C              -2.5604792918        0.9957251169       -1.7322955657  CLST      68              1.0000000000
       337        68  DCM       H1             -1.5429523214        1.1750604342       -2.1350157215  CLST      68              1.0000000000
       338        68  DCM       H2             -3.1041777752        1.9524553399       -1.5863665369  CLST      68              1.0000000000
       339        68  DCM       CL1            -3.4707679236       -0.0298289729       -2.8786135699  CLST      68              1.0000000000
       340        68  DCM       CL2            -2.4139048278        0.1577268040       -0.1633972086  CLST      68              1.0000000000
       341        69  DCM       C               2.9930070878       -1.6597940668        0.0679788187  CLST      69              1.0000000000
       342        69  DCM       H1              2.1726603997       -2.4016905643        0.1631140470  CLST      69              1.0000000000
       343        69  DCM       H2              3.5933027150       -1.8439080360       -0.8483049543  CLST      69              1.0000000000
       344        69  DCM       CL1             2.2832729165       -0.0210233535       -0.0193707833  CLST      69              1.0000000000
       345        69  DCM       CL2             4.0585477144       -1.7848305481        1.4981142520  CLST      69              1.0000000000
       346        70  DCM       C               2.4433687388        0.5212646499       -0.8117127884  CLST      70              1.0000000000
       347        70  DCM       H1              3.4339757884        0.0190010707       -0.8114709996  CLST      70              1.0000000000
       348        70  DCM       H2              2.2830383493        1.0834153854        0.1330680380  CLST      70              1.0000000000
       349        70  DCM       CL1             2.3645051130        1.6613964504       -2.1870527259  CLST      70              1.0000000000
       350        70  DCM       CL2             1.1666695279       -0.7177431526       -0.9795687361  CLST      70              1.0000000000
       351        71  DCM       C               2.7269417488       -2.5790453614       -0.9365053480  CLST      71              1.0000000000
       352        71  DCM       H1              2.8683686337       -1.4781223354       -0.9287632411  CLST      71              1.0000000000
       353        71  DCM       H2              2.5334330189       -2.9635037271        0.0859873365  CLST      71              1.0000000000
       354        71  DCM       CL1             1.3277396141       -2.9757245015       -1.9738094991  CLST      71              1.0000000000
       355        71  DCM       CL2             4.2069459193       -3.3486737551       -1.5786112698  CLST      71              1.0000000000
       356        72  DCM       C               1.3996749880       -3.0538319670       -0.6568672436  CLST      72              1.0000000000
       357        72  DCM       H1              0.3643434192       -3.0955763355       -1.0563864690  CLST      72              1.0000000000
       358        72  DCM       H2              1.4498922144       -2.4269740134        0.2576668129  CLST      72              1.0000000000
       359        72  DCM       CL1             1.9335216146       -4.7078677577       -0.2461653807  CLST      72              1.0000000000
       360        72  DCM       CL2             2.4772015986       -2.3534426259       -1.8973273464  CLST      72              1.0000000000
       361        73  DCM       C               1.6641006640       -0.3441122777       -0.0950878750  CLST      73              1.0000000000
       362        73  DCM       H1              0.7998395195        0.3060416751        0.1597720914  CLST      73              1.0000000000
       363        73  DCM       H2              1.4261527450       -1.4121511439        0.0868498906  CLST      73              1.0000000000
       364        73  DCM       CL1             2.0705701038       -0.1285092830       -1.8226467739  CLST      73              1.0000000000
       365        73  DCM       CL2             3.0593495287        0.1182670053        0.9233418021  CLST      73              1.0000000000
       366        74  DCM       C               0.8583622190       -1.6149285080        2.7826486871  CLST      74              1.0000000000
       367        74  DCM       H1              0.1991048839       -1.8572269538        1.9231460806  CLST      74              1.0000000000
       368        74  DCM       H2              1.1134451347       -2.5302292894        3.3551953225  CLST      74              1.0000000000
       369        74  DCM       CL1             2.3604642187       -0.8745945107        2.1729821395  CLST      74              1.0000000000
       370        74  DCM       CL2             0.0247396604       -0.4654323552        3.8654132173  CLST      74              1.0000000000
       371        75  DCM       C              -1.8403340260        2.1506288275        3.4040152863  CLST      75              1.0000000000
       372        75  DCM       H1             -2.1232101736        1.9611553832        4.4596598397  CLST      75              1.0000000000
       373        75  DCM       H2             -0.7530608471        2.3574864735        3.3134651593  CLST      75              1.0000000000
       374        75  DCM       CL1            -2.2455984664        0.7137574432        2.4259595343  CLST      75              1.0000000000
       375        75  DCM       CL2            -2.7561855435        3.5623037303        2.8122763277  CLST      75              1.0000000000
       376        76  DCM       C               2.1720723600       -0.4560996935        0.8242385959  CLST      76              1.0000000000
       377        76  DCM       H1              1.7617298169       -1.0049303499       -0.0483623297  CLST      76              1.0000000000
       378        76  DCM       H2              1.3882939809       -0.2841057899        1.5911989824  CLST      76              1.0000000000
       379        76  DCM       CL1             3.4957053809       -1.4156153062        1.5478729178  CLST      76              1.0000000000
       380        76  DCM       CL2             2.7920800368        1.1232233401        0.2633288553  CLST      76              1.0000000000
       381        77  DCM       C              -1.4909696409       -2.1017590924        3.1385546220  CLST      77              1.0000000000
       382        77  DCM       H1             -0.4411104944       -2.4562575463        3.0608818207  CLST      77              1.0000000000
       383        77  DCM       H2             -2.1951011664       -2.9516058763        3.2637952496  CLST      77              1.0000000000
       384        77  DCM       CL1            -1.6288480254       -1.0264689444        4.5578880332  CLST      77              1.0000000000
       385        77  DCM       CL2            -1.9156577817       -1.2067705061        1.6496402326  CLST      77              1.0000000000
       386        78  DCM       C               3.2154400409        2.5247717146        1.6841661875  CLST      78              1.0000000000
       387        78  DCM       H1              2.3990650252        3.2422914038        1.9075447487  CLST      78              1.0000000000
       388        78  DCM       H2              3.9662090031        2.9758152611        1.0014974992  CLST      78              1.0000000000
       389        78  DCM       CL1             4.0167701362        2.0655336254        3.2131258629  CLST      78              1.0000000000
       390        78  DCM       CL2             2.5200903810        1.0737700771        0.9088915027  CLST      78              1.0000000000
       391        79  DCM       C               1.6676255617        1.8009012562       -1.4806483692  CLST      79              1.0000000000
       392        79  DCM       H1              2.7016674318        1.5947960049       -1.1336936852  CLST      79              1.0000000000
       393        79  DCM       H2              1.6752782939        2.4761432028       -2.3613137968  CLST      79              1.0000000000
       394        79  DCM       CL1             0.8860227049        0.2587866758       -1.9318442267  CLST      79              1.0000000000
       395        79  DCM       CL2             0.7509064308        2.5786540557       -0.1581122389  CLST      79              1.0000000000
       396        80  DCM       C               2.4974287914       -2.7015839371        0.9187795644  CLST      80              1.0000000000
       397        80  DCM       H1              3.1623555437       -3.4132743535        1.4519454391  CLST      80              1.0000000000
       398        80  DCM       H2              3.0417636735       -1.7717690574        0.6569391537  CLST      80              1.0000000000
       399        80  DCM       CL1             1.1176670395       -2.2861749815        1.9757690368  CLST      80              1.0000000000
       400        80  DCM       CL2             1.9089471869       -3.4636950959       -0.5874039423  CLST      80              1.0000000000
       401        81  DCM       C              -2.9556052782       -2.7450057922       -1.1522850376  CLST      81              1.0000000000
       402        81  DCM       H1             -3.7531311003       -2.0318161063       -0.8552126007  CLST      81              1.0000000000
       403        81  DCM       H2             -3.3866057613       -3.6581664968       -1.6144511532  CLST      81              1.0000000000
       404        81  DCM       CL1            -1.8773613668       -1.9518816534       -2.3357964975  CLST      81              1.0000000000
       405        81  DCM       CL2            -2.0235293057       -3.2112440100        0.2993744252  CLST      81              1.0000000000
       406        82  DCM       C              -1.3978483009        2.9662436282       -2.3014758098  CLST      82              1.0000000000
       407        82  DCM       H1             -0.7595290590        2.2807013364       -1.7048996526  CLST      82              1.0000000000
       408        82  DCM       H2             -0.8688930642        3.3011582107       -3.2182690592  CLST      82              1.0000000000
       409        82  DCM       CL1            -2.8946375220        2.1100770617       -2.7738354611  CLST      82              1.0000000000
       410        82  DCM       CL2            -1.8048233182        4.3985384702       -1.3121205995  CLST      82              1.0000000000
       411        83  DCM       C              -2.2253587415       -0.7419609434        2.9500638049  CLST      83              1.0000000000
       412        83  DCM       H1             -2.6239775633        0.2914322474        3.0224627494  CLST      83              1.0000000000
       413        83  DCM       H2             -1.2623432798       -0.8351906983        3.4956699703  CLST      83              1.0000000000
       414        83  DCM       CL1            -3.4133608116       -1.8724106662        3.6595022461  CLST      83              1.0000000000
       415        83  DCM       CL2            -1.9655964704       -1.1447509753        1.2289811534  CLST      83              1.0000000000
       416        84  DCM       C               1.0837468455        2.3184746458       -1.8135172715  CLST      84              1.0000000000
       417        84  DCM       H1              1.9148447247        2.7512516642       -2.4073847676  CLST      84              1.0000000000
       418        84  DCM       H2              0.1003565998        2.6174163260       -2.2336981719  CLST      84              1.0000000000
       419        84  DCM       CL1             1.2160631342        0.5389549690       -1.8486282928  CLST      84              1.0000000000
       420        84  DCM       CL2             1.2060983704        2.8966743714       -0.1265209684  CLST      84              1.0000000000
       421        85  DCM       C              -4.9965733191       -0.1347658447       -0.7160359446  CLST      85              1.0000000000
       422        85  DCM       H1             -4.2679920628        0.6679256627       -0.9534520327  CLST      85              1.0000000000
       423        85  DCM       H2             -4.9659027878       -0.3906681995        0.3641036014  CLST      85              1.0000000000
       424        85  DCM       CL1            -6.6397763868        0.4260005841       -1.1357409445  CLST      85              1.0000000000
       425        85  DCM       CL2            -4.5927546008       -1.5895034937       -1.6739925484  CLST      85              1.0000000000
       426        86  DCM       C               0.0389872008        0.7038276903       -2.3005088808  CLST      86              1.0000000000
       427        86  DCM       H1             -0.3670809142        1.2387357922       -1.4161129794  CLST      86              1.0000000000
       428        86  DCM       H2             -0.4848048549       -0.2631361649       -2.4564596430  CLST      86              1.0000000000
       429        86  DCM       CL1            -0.1804306939        1.7265810769       -3.7506674021  CLST      86              1.0000000000
       430        86  DCM       CL2             1.7794505047        0.3911262362       -2.0401767896  CLST      86              1.0000000000
       431        87  DCM       C              -1.3453086876        1.1097054555        0.9676719147  CLST      87              1.0000000000
       432        87  DCM       H1             -0.5278542666        1.3726669783        1.6720326321  CLST      87              1.0000000000
       433        87  DCM       H2             -1.4890840148        0.0098867646        0.9160931921  CLST      87              1.0000000000
       434        87  DCM       CL1            -0.9234318478        1.7164154271       -0.6587155879  CLST      87              1.0000000000
       435        87  DCM       CL2            -2.8645031993        1.8676657758        1.5267080948  CLST      87              1.0000000000
       436        88  DCM       C              -1.1258993245        0.2186485205        0.3190097793  CLST      88              1.0000000000
       437        88  DCM       H1             -1.1508211865        0.4091678466        1.4126725559  CLST      88              1.0000000000
       438        88  DCM       H2             -0.4996615732       -0.6680343800        0.0834723354  CLST      88              1.0000000000
       439        88  DCM       CL1            -2.7923765098       -0.0673760746       -0.2588020835  CLST      88              1.0000000000
       440        88  DCM       CL2            -0.4403310249        1.6479045515       -0.5032232140  CLST      88              1.0000000000
       441        89  DCM       C              -0.3723560100       -1.2703670870       -2.1128389371  CLST      89              1.0000000000
       442        89  DCM       H1             -1.4012864608       -1.5539114902       -2.4204722293  CLST      89              1.0000000000
       443        89  DCM       H2             -0.3501779893       -0.2517612233       -1.6711860821  CLST      89              1.0000000000
       444        89  DCM       CL1             0.2277696061       -2.4421953908       -0.9051064031  CLST      89              1.0000000000
       445        89  DCM       CL2             0.6862839956       -1.2966931316       -3.5486084058  CLST      89              1.0000000000
       446        90  DCM       C              -3.0955446178        0.6159268238       -2.8969076650  CLST      90              1.0000000000
       447        90  DCM       H1             -2.7343141372        1.5165315188       -3.4367691733  CLST      90              1.0000000000
       448        90  DCM       H2             -3.6723003147       -0.0507534346       -3.5709952367  CLST      90              1.0000000000
       449        90  DCM       CL1            -4.1494296450        1.1250133389       -1.5503320116  CLST      90              1.0000000000
       450        90  DCM       CL2            -1.6915120556       -0.2822980936       -2.2579233475  CLST      90              1.0000000000
       451        91  DCM       C               0.4331185019       -0.3700161652        1.3886446464  CLST      91              1.0000000000
       452        91  DCM       H1             -0.2641276295        0.0394584386        2.1501713742  CLST      91              1.0000000000
       453        91  DCM       H2              0.6538214486       -1.4411355741        1.5750386871  CLST      91              1.0000000000
       454        91  DCM       CL1            -0.3167884332       -0.2203525128       -0.2236163289  CLST      91              1.0000000000
       455        91  DCM       CL2             1.9628292143        0.5514198205        1.4415848948  CLST      91              1.0000000000
       456        92  DCM       C               1.5260866581        2.3205006174        2.7435280713  CLST      92              1.0000000000
       457        92  DCM       H1              1.6260596566        2.1091462941        1.6579140291  CLST      92              1.0000000000
       458        92  DCM       H2              2.1757811605        1.6466817831        3.3409620630  CLST      92              1.0000000000
       459        92  DCM       CL1             2.0017017264        4.0141620398        3.0629593604  CLST      92              1.0000000000
       460        92  DCM       CL2            -0.1742569401        2.0700548556        3.2276740734  CLST      92              1.0000000000
       461        93  DCM       C              -1.9722425139       -2.7576448226        1.6458122447  CLST      93              1.0000000000
       462        93  DCM       H1             -0.9740170657       -2.3005741895        1.4802489305  CLST      93              1.0000000000
       463        93  DCM       H2             -2.4190008617       -2.4056065731        2.5999368920  CLST      93              1.0000000000
       464        93  DCM       CL1            -3.0476282728       -2.2988838673        0.2927802305  CLST      93              1.0000000000
       465        93  DCM       CL2            -1.7929804616       -4.5355868955        1.7090564664  CLST      93              1.0000000000
       466        94  DCM       C              -0.7991487198        3.0045287338       -2.3571876682  CLST      94              1.0000000000
       467        94  DCM       H1             -0.0788020079        3.4490906656       -3.0744437712  CLST      94              1.0000000000
       468        94  DCM       H2             -1.2890844731        3.7921800877       -1.7468813733  CLST      94              1.0000000000
       469        94  DCM       CL1            -2.0478534729        2.1167607800       -3.2719233283  CLST      94              1.0000000000
       470        94  DCM       CL2             0.0780766400        1.8794451410       -1.2797564542  CLST      94              1.0000000000
       471        95  DCM       C              -0.0442856598       -2.0618049572        1.2523095064  CLST      95              1.0000000000
       472        95  DCM       H1              0.4747054283       -2.0851341027        2.2321740702  CLST      95              1.0000000000
       473        95  DCM       H2              0.6390005725       -1.7237917900        0.4465747980  CLST      95              1.0000000000
       474        95  DCM       CL1            -0.6281269154       -3.7029803946        0.8679592107  CLST      95              1.0000000000
       475        95  DCM       CL2            -1.4270778028       -0.9375338689        1.3418313259  CLST      95              1.0000000000
       476        96  DCM       C               1.6152800230       -3.6752847663       -0.8368031648  CLST      96              1.0000000000
       477        96  DCM       H1              1.1792645441       -4.5168346228       -0.2576978394  CLST      96              1.0000000000
       478        96  DCM       H2              2.3164224963       -3.0821917925       -0.2122368183  CLST      96              1.0000000000
       479        96  DCM       CL1             2.5041172630       -4.3334184091       -2.2414993016  CLST      96              1.0000000000
       480        96  DCM       CL2             0.2944834837       -2.6099015980       -1.3997671220  CLST      96              1.0000000000
       481        97  DCM       C               1.6106875064       -2.5813208716       -2.4410883300  CLST      97              1.0000000000
       482        97  DCM       H1              0.9191877733       -2.5193794828       -3.3081712920  CLST      97              1.0000000000
       483        97  DCM       H2              2.6201557273       -2.2024880832       -2.7067271482  CLST      97              1.0000000000
       484        97  DCM       CL1             0.9558331353       -1.5960130130       -1.1004538137  CLST      97              1.0000000000
       485        97  DCM       CL2             1.7471185568       -4.2879545066       -1.9254924670  CLST      97              1.0000000000
       486        98  DCM       C               2.3984723103        0.5942391790        0.2390929885  CLST      98              1.0000000000
       487        98  DCM       H1              2.4987899377        0.5402401853       -0.8659092029  CLST      98              1.0000000000
       488        98  DCM       H2              2.9941877826        1.4333402917        0.6566096220  CLST      98              1.0000000000
       489        98  DCM       CL1             0.6790911441        0.8401598125        0.6500631942  CLST      98              1.0000000000
       490        98  DCM       CL2             2.9708531802       -0.9399547664        0.9522374486  CLST      98              1.0000000000
