* INITIAL
*  DATE:     6/28/26      2: 0:10      CREATED BY USER: boittier
*
       490  EXT
         1         1  DCM       C              -4.6852858940       -3.3177335473       -4.1105135755  CLST      1               1.0000000000
         2         1  DCM       H1             -4.6351242562       -2.3736025163       -3.5307334192  CLST      1               1.0000000000
         3         1  DCM       H2             -4.9374477301       -4.1752419695       -3.4523156408  CLST      1               1.0000000000
         4         1  DCM       CL1            -5.9516218178       -3.1502160661       -5.3580975529  CLST      1               1.0000000000
         5         1  DCM       CL2            -3.1002920669       -3.6206445391       -4.8815788076  CLST      1               1.0000000000
         6         2  DCM       C               9.5027381268        6.6333504294        5.0528132191  CLST      2               1.0000000000
         7         2  DCM       H1              9.0149161803        6.3012826307        4.1116508286  CLST      2               1.0000000000
         8         2  DCM       H2             10.4498023812        6.0830931759        5.2231467496  CLST      2               1.0000000000
         9         2  DCM       CL1             9.8690545937        8.3779576093        4.9434052620  CLST      2               1.0000000000
        10         2  DCM       CL2             8.4079159454        6.3209425587        6.4298787461  CLST      2               1.0000000000
        11         3  DCM       C               0.7792398747       -2.4530084823       -0.8576573988  CLST      3               1.0000000000
        12         3  DCM       H1             -0.0243063022       -2.2094594678       -0.1314788103  CLST      3               1.0000000000
        13         3  DCM       H2              1.2649553773       -1.5291076584       -1.2362599373  CLST      3               1.0000000000
        14         3  DCM       CL1             2.0065070831       -3.4670901208       -0.0485630319  CLST      3               1.0000000000
        15         3  DCM       CL2             0.0726618996       -3.3492304189       -2.2337488857  CLST      3               1.0000000000
        16         4  DCM       C               0.8975285167       -2.4216950190        6.6091838818  CLST      4               1.0000000000
        17         4  DCM       H1              0.4970129635       -3.3453903939        6.1420606344  CLST      4               1.0000000000
        18         4  DCM       H2              2.0056720911       -2.4358590493        6.6140734649  CLST      4               1.0000000000
        19         4  DCM       CL1             0.3161179602       -2.3130240142        8.2955591567  CLST      4               1.0000000000
        20         4  DCM       CL2             0.3372662199       -1.0018088709        5.6786609340  CLST      4               1.0000000000
        21         5  DCM       C               4.1435872702       -0.1295949602        6.9031468065  CLST      5               1.0000000000
        22         5  DCM       H1              4.7690879341        0.5721378153        7.4945943990  CLST      5               1.0000000000
        23         5  DCM       H2              3.0757283417       -0.0632995524        7.2018799135  CLST      5               1.0000000000
        24         5  DCM       CL1             4.2884744861        0.2870457773        5.1702357475  CLST      5               1.0000000000
        25         5  DCM       CL2             4.7235997928       -1.7983973871        7.1812932154  CLST      5               1.0000000000
        26         6  DCM       C               8.7534881359       -3.7842372781       -2.8157024519  CLST      6               1.0000000000
        27         6  DCM       H1              8.4770166081       -3.9898956590       -1.7606303538  CLST      6               1.0000000000
        28         6  DCM       H2              9.8063827625       -4.0743203000       -3.0168967878  CLST      6               1.0000000000
        29         6  DCM       CL1             7.6755886699       -4.7207088828       -3.8897988079  CLST      6               1.0000000000
        30         6  DCM       CL2             8.5609322128       -2.0370800250       -3.1315020139  CLST      6               1.0000000000
        31         7  DCM       C               0.3469666110        7.7441696647        0.9585845762  CLST      7               1.0000000000
        32         7  DCM       H1              1.1394386735        7.6144256792        1.7260591455  CLST      7               1.0000000000
        33         7  DCM       H2              0.7595122170        7.6163806398       -0.0651033183  CLST      7               1.0000000000
        34         7  DCM       CL1            -0.9249733392        6.5178982721        1.2264299735  CLST      7               1.0000000000
        35         7  DCM       CL2            -0.3512541258        9.3833667853        1.1115323675  CLST      7               1.0000000000
        36         8  DCM       C               2.4134787348       -5.7728879098       -3.8650307799  CLST      8               1.0000000000
        37         8  DCM       H1              2.2798218562       -6.8469397280       -3.6186068570  CLST      8               1.0000000000
        38         8  DCM       H2              2.3048353910       -5.1404466561       -2.9581112111  CLST      8               1.0000000000
        39         8  DCM       CL1             4.0464850389       -5.5251058731       -4.5456287658  CLST      8               1.0000000000
        40         8  DCM       CL2             1.1780593318       -5.2920887774       -5.0633564504  CLST      8               1.0000000000
        41         9  DCM       C              -1.6713606398       -3.0030559898       17.3637643475  CLST      9               1.0000000000
        42         9  DCM       H1             -2.2470722543       -2.6458755719       16.4840702763  CLST      9               1.0000000000
        43         9  DCM       H2             -1.7677465033       -2.2976892846       18.2157958692  CLST      9               1.0000000000
        44         9  DCM       CL1            -2.2944662493       -4.6043968745       17.8581355474  CLST      9               1.0000000000
        45         9  DCM       CL2             0.0533656560       -3.1392439885       16.9146976396  CLST      9               1.0000000000
        46        10  DCM       C              14.9349108896        1.6474008904       -4.1999621213  CLST      10              1.0000000000
        47        10  DCM       H1             15.2352880903        1.4995303547       -5.2584136802  CLST      10              1.0000000000
        48        10  DCM       H2             15.8007863609        1.5248768457       -3.5183577744  CLST      10              1.0000000000
        49        10  DCM       CL1            14.2813179911        3.3002413569       -4.0088241046  CLST      10              1.0000000000
        50        10  DCM       CL2            13.6837602135        0.4411835582       -3.7725629638  CLST      10              1.0000000000
        51        11  DCM       C              -4.7649612858       12.9912906497       -2.6733220899  CLST      11              1.0000000000
        52        11  DCM       H1             -5.0220905484       12.2012954788       -1.9373125488  CLST      11              1.0000000000
        53        11  DCM       H2             -3.9787902476       12.6439605694       -3.3760431960  CLST      11              1.0000000000
        54        11  DCM       CL1            -6.2257264502       13.4192507182       -3.6088347341  CLST      11              1.0000000000
        55        11  DCM       CL2            -4.1674955758       14.4274724555       -1.7947389798  CLST      11              1.0000000000
        56        12  DCM       C               0.6208946153       -8.5069333850       -0.9820637438  CLST      12              1.0000000000
        57        12  DCM       H1             -0.0375740960       -8.7726084600       -1.8334197364  CLST      12              1.0000000000
        58        12  DCM       H2              0.2074832817       -8.8955117708       -0.0291677288  CLST      12              1.0000000000
        59        12  DCM       CL1             0.7452736124       -6.7310442008       -0.8758036903  CLST      12              1.0000000000
        60        12  DCM       CL2             2.2397128545       -9.2117090377       -1.2501705686  CLST      12              1.0000000000
        61        13  DCM       C              12.3588355468        3.9493997292       -0.6804338245  CLST      13              1.0000000000
        62        13  DCM       H1             11.8656419358        4.2266521563       -1.6351323845  CLST      13              1.0000000000
        63        13  DCM       H2             11.6494904619        4.0132570558        0.1697645147  CLST      13              1.0000000000
        64        13  DCM       CL1            12.9551293247        2.2725765761       -0.8048394401  CLST      13              1.0000000000
        65        13  DCM       CL2            13.7285871632        5.0611586329       -0.3920113244  CLST      13              1.0000000000
        66        14  DCM       C              -2.9042602255      -11.6670317207        2.2394395234  CLST      14              1.0000000000
        67        14  DCM       H1             -2.3436661268      -10.8479771142        1.7427289647  CLST      14              1.0000000000
        68        14  DCM       H2             -2.2999052293      -12.5972653330        2.2807324304  CLST      14              1.0000000000
        69        14  DCM       CL1            -3.3073268937      -11.1598448458        3.9044564482  CLST      14              1.0000000000
        70        14  DCM       CL2            -4.4036306598      -11.9905982297        1.3212175937  CLST      14              1.0000000000
        71        15  DCM       C               5.4233601667        6.7814814714       -0.4545060099  CLST      15              1.0000000000
        72        15  DCM       H1              6.1818861800        7.5756225079       -0.6160375201  CLST      15              1.0000000000
        73        15  DCM       H2              5.8343111707        5.9585917491        0.1680588756  CLST      15              1.0000000000
        74        15  DCM       CL1             4.0056275801        7.4916331439        0.3724196458  CLST      15              1.0000000000
        75        15  DCM       CL2             4.9302032065        6.1228115271       -2.0398644960  CLST      15              1.0000000000
        76        16  DCM       C              -6.2184078403       12.1012187432        3.9427757442  CLST      16              1.0000000000
        77        16  DCM       H1             -6.5602461003       13.1338698483        3.7198981048  CLST      16              1.0000000000
        78        16  DCM       H2             -6.1005148206       11.5126944062        3.0092661317  CLST      16              1.0000000000
        79        16  DCM       CL1            -4.6437754724       12.1740351637        4.7854673199  CLST      16              1.0000000000
        80        16  DCM       CL2            -7.4243940841       11.2962845978        4.9877795938  CLST      16              1.0000000000
        81        17  DCM       C              -9.8494330496       -4.2959327738       -3.1090855959  CLST      17              1.0000000000
        82        17  DCM       H1            -10.4578659107       -5.0084659831       -3.7045600454  CLST      17              1.0000000000
        83        17  DCM       H2            -10.2095895349       -4.2420508782       -2.0591206786  CLST      17              1.0000000000
        84        17  DCM       CL1            -8.1494770540       -4.8452417770       -3.1155511111  CLST      17              1.0000000000
        85        17  DCM       CL2            -9.9626612114       -2.6740009440       -3.8507177065  CLST      17              1.0000000000
        86        18  DCM       C              -1.0919432110       -7.3275468933        5.2637400239  CLST      18              1.0000000000
        87        18  DCM       H1             -1.9449407114       -6.6779822518        4.9744425923  CLST      18              1.0000000000
        88        18  DCM       H2             -1.3038345800       -7.8611393791        6.2144107644  CLST      18              1.0000000000
        89        18  DCM       CL1             0.3691452048       -6.3202770164        5.4734334565  CLST      18              1.0000000000
        90        18  DCM       CL2            -0.8080601471       -8.5258493824        3.9705067109  CLST      18              1.0000000000
        91        19  DCM       C              -4.3972327131        9.2607976743       -4.1108688174  CLST      19              1.0000000000
        92        19  DCM       H1             -4.3908387984        9.7858523404       -3.1338405290  CLST      19              1.0000000000
        93        19  DCM       H2             -3.3683502634        8.9669045033       -4.4082719146  CLST      19              1.0000000000
        94        19  DCM       CL1            -5.4098909100        7.7951164957       -3.9755167245  CLST      19              1.0000000000
        95        19  DCM       CL2            -5.0779507456       10.3493317439       -5.3528847743  CLST      19              1.0000000000
        96        20  DCM       C              -3.0134192821       -3.0051905476        5.1726904993  CLST      20              1.0000000000
        97        20  DCM       H1             -3.8419719140       -2.4346238718        5.6421200852  CLST      20              1.0000000000
        98        20  DCM       H2             -2.2382150718       -2.3223302837        4.7682656588  CLST      20              1.0000000000
        99        20  DCM       CL1            -3.6739779001       -3.9967507865        3.8466491406  CLST      20              1.0000000000
       100        20  DCM       CL2            -2.2714309823       -4.0716624620        6.3942645999  CLST      20              1.0000000000
       101        21  DCM       C               7.7565372852       -1.4285287490        5.0083089461  CLST      21              1.0000000000
       102        21  DCM       H1              6.8787810390       -2.0926346097        5.1537477761  CLST      21              1.0000000000
       103        21  DCM       H2              8.6933992171       -2.0192192309        4.9248364143  CLST      21              1.0000000000
       104        21  DCM       CL1             7.8813354794       -0.3279805586        6.4097737872  CLST      21              1.0000000000
       105        21  DCM       CL2             7.5268216683       -0.4790682123        3.5125676704  CLST      21              1.0000000000
       106        22  DCM       C              -4.7347984595       -0.0888641727        8.0132591767  CLST      22              1.0000000000
       107        22  DCM       H1             -5.3035593148       -0.5946290378        7.2052195102  CLST      22              1.0000000000
       108        22  DCM       H2             -4.8335711522        1.0148061035        7.9401161031  CLST      22              1.0000000000
       109        22  DCM       CL1            -5.3751694772       -0.6311127921        9.5917340371  CLST      22              1.0000000000
       110        22  DCM       CL2            -3.0085327169       -0.5333385295        7.8724026249  CLST      22              1.0000000000
       111        23  DCM       C              -5.0930933933       -6.6622006999       -5.8348372930  CLST      23              1.0000000000
       112        23  DCM       H1             -5.3924726909       -5.9726049315       -6.6500986645  CLST      23              1.0000000000
       113        23  DCM       H2             -4.6509519810       -6.1025285179       -4.9860580479  CLST      23              1.0000000000
       114        23  DCM       CL1            -3.8784887628       -7.8122363055       -6.4614017826  CLST      23              1.0000000000
       115        23  DCM       CL2            -6.5337527040       -7.5463840938       -5.2558722611  CLST      23              1.0000000000
       116        24  DCM       C              12.8808492518       -1.4247082805       -0.1194699589  CLST      24              1.0000000000
       117        24  DCM       H1             13.5505414998       -0.5415253412       -0.1741905521  CLST      24              1.0000000000
       118        24  DCM       H2             13.3864515905       -2.3331179193       -0.5102087938  CLST      24              1.0000000000
       119        24  DCM       CL1            12.4212964769       -1.7058204809        1.5861825628  CLST      24              1.0000000000
       120        24  DCM       CL2            11.4176263249       -1.1118244518       -1.0955412287  CLST      24              1.0000000000
       121        25  DCM       C               5.8699942024       -7.1384399373       -1.5414247380  CLST      25              1.0000000000
       122        25  DCM       H1              5.9322144173       -6.9179576875       -2.6281093031  CLST      25              1.0000000000
       123        25  DCM       H2              5.7780028242       -8.2306296690       -1.3617578429  CLST      25              1.0000000000
       124        25  DCM       CL1             7.3497772199       -6.5372925349       -0.7390796244  CLST      25              1.0000000000
       125        25  DCM       CL2             4.4378987484       -6.3153971068       -0.8603084764  CLST      25              1.0000000000
       126        26  DCM       C               9.5821508966        2.4408968959        5.3467076340  CLST      26              1.0000000000
       127        26  DCM       H1              9.7620140231        1.4167736381        4.9557917521  CLST      26              1.0000000000
       128        26  DCM       H2              9.0792813800        2.4132925404        6.3357815508  CLST      26              1.0000000000
       129        26  DCM       CL1            11.1510066881        3.2755832693        5.5209038356  CLST      26              1.0000000000
       130        26  DCM       CL2             8.5355811551        3.3219050883        4.1982638586  CLST      26              1.0000000000
       131        27  DCM       C               6.6092071146       -1.9496030938      -10.9132272789  CLST      27              1.0000000000
       132        27  DCM       H1              5.8289843218       -1.9479537346      -10.1229059019  CLST      27              1.0000000000
       133        27  DCM       H2              6.1546979860       -2.0533488715      -11.9207037238  CLST      27              1.0000000000
       134        27  DCM       CL1             7.5182455536       -0.4122802477      -10.8400787510  CLST      27              1.0000000000
       135        27  DCM       CL2             7.7180964432       -3.3229162939      -10.6324679187  CLST      27              1.0000000000
       136        28  DCM       C              -9.6243230704        8.4194920570        4.5811063023  CLST      28              1.0000000000
       137        28  DCM       H1             -9.9878212125        9.4057661550        4.9393317602  CLST      28              1.0000000000
       138        28  DCM       H2             -8.5882469741        8.4965361787        4.1893143161  CLST      28              1.0000000000
       139        28  DCM       CL1            -9.6404482103        7.2611156670        5.9415787031  CLST      28              1.0000000000
       140        28  DCM       CL2           -10.7022868274        7.8399607959        3.2776064247  CLST      28              1.0000000000
       141        29  DCM       C               0.2923859282        4.9619436867       -7.0278068010  CLST      29              1.0000000000
       142        29  DCM       H1              1.0361855176        4.1875863384       -7.3075024163  CLST      29              1.0000000000
       143        29  DCM       H2             -0.7043147134        4.5088700550       -6.8426093701  CLST      29              1.0000000000
       144        29  DCM       CL1             0.8463723292        5.7885261201       -5.5418910902  CLST      29              1.0000000000
       145        29  DCM       CL2             0.1492281859        6.1387223507       -8.3648876714  CLST      29              1.0000000000
       146        30  DCM       C              -9.7803878585        3.3061365748       -3.0122967303  CLST      30              1.0000000000
       147        30  DCM       H1            -10.3095642765        3.6360498198       -2.0939547050  CLST      30              1.0000000000
       148        30  DCM       H2             -8.6955225323        3.5324679237       -2.9503606382  CLST      30              1.0000000000
       149        30  DCM       CL1            -9.9971959198        1.5430468802       -3.2077294577  CLST      30              1.0000000000
       150        30  DCM       CL2           -10.4716525869        4.1659580586       -4.4178147415  CLST      30              1.0000000000
       151        31  DCM       C               5.9234209040       -1.2270138132       -0.3034035760  CLST      31              1.0000000000
       152        31  DCM       H1              6.4435492695       -1.0925189097        0.6677126385  CLST      31              1.0000000000
       153        31  DCM       H2              6.4885399493       -0.7408195576       -1.1265676363  CLST      31              1.0000000000
       154        31  DCM       CL1             4.2935395920       -0.4979664418       -0.1991507713  CLST      31              1.0000000000
       155        31  DCM       CL2             5.7820873978       -2.9747817524       -0.6503501902  CLST      31              1.0000000000
       156        32  DCM       C               6.0711521804        2.5740357893       -1.5979051728  CLST      32              1.0000000000
       157        32  DCM       H1              6.6586196622        3.4264138987       -1.9974817254  CLST      32              1.0000000000
       158        32  DCM       H2              6.5401078187        1.6066346230       -1.8760987558  CLST      32              1.0000000000
       159        32  DCM       CL1             4.4183706740        2.6347358097       -2.2741532608  CLST      32              1.0000000000
       160        32  DCM       CL2             6.0002767354        2.6960520032        0.1839092987  CLST      32              1.0000000000
       161        33  DCM       C              -4.9630492099      -10.9785217329       -4.5938647686  CLST      33              1.0000000000
       162        33  DCM       H1             -5.3482847734      -10.2687847945       -5.3561346839  CLST      33              1.0000000000
       163        33  DCM       H2             -5.3855969743      -11.9938866703       -4.7472047975  CLST      33              1.0000000000
       164        33  DCM       CL1            -3.1820123505      -11.0623669406       -4.7259633088  CLST      33              1.0000000000
       165        33  DCM       CL2            -5.4248238967      -10.3975791246       -2.9670140899  CLST      33              1.0000000000
       166        34  DCM       C              -3.0762423130        7.6122934765       -7.3702165993  CLST      34              1.0000000000
       167        34  DCM       H1             -4.1425358257        7.9154011337       -7.3378314207  CLST      34              1.0000000000
       168        34  DCM       H2             -2.8493131252        7.0450314553       -8.2981132651  CLST      34              1.0000000000
       169        34  DCM       CL1            -2.0589049383        9.0794601212       -7.3245260954  CLST      34              1.0000000000
       170        34  DCM       CL2            -2.7202896106        6.5838441371       -5.9522863087  CLST      34              1.0000000000
       171        35  DCM       C               4.9891246445       -8.7365986254       -5.7905858895  CLST      35              1.0000000000
       172        35  DCM       H1              4.2847733401       -8.0371765212       -6.2888261945  CLST      35              1.0000000000
       173        35  DCM       H2              5.1259261181       -9.6608483152       -6.3907025063  CLST      35              1.0000000000
       174        35  DCM       CL1             6.5705139410       -7.9253288450       -5.5977150084  CLST      35              1.0000000000
       175        35  DCM       CL2             4.3345573072       -9.1767888207       -4.1861037535  CLST      35              1.0000000000
       176        36  DCM       C              -5.5357979823       -3.4426761286       -8.8285949367  CLST      36              1.0000000000
       177        36  DCM       H1             -6.3351360213       -3.9427045015       -8.2428498774  CLST      36              1.0000000000
       178        36  DCM       H2             -5.4948687956       -2.3569357535       -8.5992153060  CLST      36              1.0000000000
       179        36  DCM       CL1            -3.9606867395       -4.1817659030       -8.4169883386  CLST      36              1.0000000000
       180        36  DCM       CL2            -5.8712452523       -3.6596354590      -10.5704454387  CLST      36              1.0000000000
       181        37  DCM       C              -3.9420806258        2.9577920385       -7.9872235893  CLST      37              1.0000000000
       182        37  DCM       H1             -3.5994740776        1.9704465808       -8.3600080403  CLST      37              1.0000000000
       183        37  DCM       H2             -5.0407303822        3.0685737416       -8.1008654172  CLST      37              1.0000000000
       184        37  DCM       CL1            -3.5149591881        3.1074665020       -6.2575287502  CLST      37              1.0000000000
       185        37  DCM       CL2            -3.1297475949        4.2413854423       -8.9268213371  CLST      37              1.0000000000
       186        38  DCM       C              -5.0324428623       -4.0737323075        0.4356987703  CLST      38              1.0000000000
       187        38  DCM       H1             -4.4355074303       -3.3334471866        1.0092535964  CLST      38              1.0000000000
       188        38  DCM       H2             -4.3750152801       -4.8222105596       -0.0531042071  CLST      38              1.0000000000
       189        38  DCM       CL1            -6.1539064196       -4.9159826959        1.5381187315  CLST      38              1.0000000000
       190        38  DCM       CL2            -5.9645248768       -3.2179595315       -0.8170754381  CLST      38              1.0000000000
       191        39  DCM       C              -2.9435006554       12.1064205769        1.4077030710  CLST      39              1.0000000000
       192        39  DCM       H1             -2.1233806035       12.1615487516        0.6612421550  CLST      39              1.0000000000
       193        39  DCM       H2             -2.5855311766       11.6706528878        2.3643879610  CLST      39              1.0000000000
       194        39  DCM       CL1            -3.5609334119       13.7553507203        1.7149669243  CLST      39              1.0000000000
       195        39  DCM       CL2            -4.2538367713       11.0805128457        0.7579958621  CLST      39              1.0000000000
       196        40  DCM       C              -1.0222073547        0.0517043210        2.2590013802  CLST      40              1.0000000000
       197        40  DCM       H1             -1.2990024437        0.9163443993        2.8975203325  CLST      40              1.0000000000
       198        40  DCM       H2             -0.1922149829       -0.5322748881        2.7122384456  CLST      40              1.0000000000
       199        40  DCM       CL1            -2.4492544787       -1.0085825311        2.0764835093  CLST      40              1.0000000000
       200        40  DCM       CL2            -0.5028740509        0.6547729070        0.6580254537  CLST      40              1.0000000000
       201        41  DCM       C               9.3042333503        1.1789599444        1.0053214379  CLST      41              1.0000000000
       202        41  DCM       H1              9.2617528956        0.0714577489        0.9526046566  CLST      41              1.0000000000
       203        41  DCM       H2              8.4082587094        1.5926493386        1.5153155922  CLST      41              1.0000000000
       204        41  DCM       CL1             9.3868587872        1.8353911588       -0.6528086732  CLST      41              1.0000000000
       205        41  DCM       CL2            10.7591354470        1.6586914779        1.9226638135  CLST      41              1.0000000000
       206        42  DCM       C              -3.3667642763        8.2738677916        3.1869451913  CLST      42              1.0000000000
       207        42  DCM       H1             -3.1911294902        8.5252282225        2.1202425094  CLST      42              1.0000000000
       208        42  DCM       H2             -3.1728754474        7.1973527441        3.3787838469  CLST      42              1.0000000000
       209        42  DCM       CL1            -2.2720095535        9.2558522487        4.2019291455  CLST      42              1.0000000000
       210        42  DCM       CL2            -5.0652875946        8.6411237259        3.5978785797  CLST      42              1.0000000000
       211        43  DCM       C              -6.7818535041        4.7668335004       -5.5873156602  CLST      43              1.0000000000
       212        43  DCM       H1             -7.6133066201        5.2734506455       -5.0532245400  CLST      43              1.0000000000
       213        43  DCM       H2             -5.9120005605        4.6115303282       -4.9146381708  CLST      43              1.0000000000
       214        43  DCM       CL1            -7.3520460482        3.1816231778       -6.1842569115  CLST      43              1.0000000000
       215        43  DCM       CL2            -6.2735409944        5.7821379110       -6.9676694504  CLST      43              1.0000000000
       216        44  DCM       C               0.4843445364       -9.4386190291       -4.9972572784  CLST      44              1.0000000000
       217        44  DCM       H1              1.1985640702       -9.5708581776       -4.1574941070  CLST      44              1.0000000000
       218        44  DCM       H2              0.0162939311      -10.4055763579       -5.2801976194  CLST      44              1.0000000000
       219        44  DCM       CL1            -0.7974093525       -8.2994444707       -4.4983832414  CLST      44              1.0000000000
       220        44  DCM       CL2             1.3602255157       -8.7771724321       -6.4079151142  CLST      44              1.0000000000
       221        45  DCM       C              -9.0569369854       -1.8954954077       -0.0350033604  CLST      45              1.0000000000
       222        45  DCM       H1             -8.8224229313       -2.2298726886       -1.0665587471  CLST      45              1.0000000000
       223        45  DCM       H2             -8.2146916454       -1.3151350146        0.3970356419  CLST      45              1.0000000000
       224        45  DCM       CL1            -9.3560002859       -3.3365236257        0.9778439390  CLST      45              1.0000000000
       225        45  DCM       CL2           -10.5160898746       -0.8657425182       -0.0814161565  CLST      45              1.0000000000
       226        46  DCM       C              10.2317373927        1.5170591736       -4.1527476645  CLST      46              1.0000000000
       227        46  DCM       H1             10.5637068609        1.0109682387       -3.2212525867  CLST      46              1.0000000000
       228        46  DCM       H2             10.7153102444        1.0644764709       -5.0435660555  CLST      46              1.0000000000
       229        46  DCM       CL1             8.4579737108        1.3654586168       -4.3048687253  CLST      46              1.0000000000
       230        46  DCM       CL2            10.6751615405        3.2445074415       -4.0645817835  CLST      46              1.0000000000
       231        47  DCM       C              -6.3754903428       -1.4676201379        3.2482376927  CLST      47              1.0000000000
       232        47  DCM       H1             -7.2328767654       -0.9338491820        2.7889564941  CLST      47              1.0000000000
       233        47  DCM       H2             -5.6929812517       -1.8697655505        2.4718016722  CLST      47              1.0000000000
       234        47  DCM       CL1            -5.4681752933       -0.3312274391        4.2854166109  CLST      47              1.0000000000
       235        47  DCM       CL2            -7.0051775639       -2.8149987685        4.2345851409  CLST      47              1.0000000000
       236        48  DCM       C              -6.3342049576       -8.7929248377       -9.9547835592  CLST      48              1.0000000000
       237        48  DCM       H1             -7.3017369042       -8.5070370642      -10.4194864787  CLST      48              1.0000000000
       238        48  DCM       H2             -5.8038691965       -9.5513645494      -10.5687035689  CLST      48              1.0000000000
       239        48  DCM       CL1            -6.6457129185       -9.4744774758       -8.3313503552  CLST      48              1.0000000000
       240        48  DCM       CL2            -5.3046220979       -7.3383318242       -9.8163562737  CLST      48              1.0000000000
       241        49  DCM       C               2.4677967085       -7.8338455203        2.2142854218  CLST      49              1.0000000000
       242        49  DCM       H1              3.0949024505       -8.2661188634        1.4066899815  CLST      49              1.0000000000
       243        49  DCM       H2              1.3879071294       -7.9266054903        1.9746764158  CLST      49              1.0000000000
       244        49  DCM       CL1             2.8764759920       -6.1054004882        2.3981390998  CLST      49              1.0000000000
       245        49  DCM       CL2             2.8029305787       -8.7019078748        3.7396443619  CLST      49              1.0000000000
       246        50  DCM       C               4.5563377164       -2.7133835400        2.7640019896  CLST      50              1.0000000000
       247        50  DCM       H1              4.9543199395       -1.6790332862        2.8272343914  CLST      50              1.0000000000
       248        50  DCM       H2              4.0987994917       -2.9045695575        1.7721891374  CLST      50              1.0000000000
       249        50  DCM       CL1             5.8870030597       -3.8795343433        3.0198385923  CLST      50              1.0000000000
       250        50  DCM       CL2             3.3091651972       -2.9331090084        4.0185190116  CLST      50              1.0000000000
       251        51  DCM       C              -2.4175143241       -0.7829929729       -7.4082315621  CLST      51              1.0000000000
       252        51  DCM       H1             -1.6651402160        0.0170512780       -7.2465383382  CLST      51              1.0000000000
       253        51  DCM       H2             -2.0088740384       -1.7779309203       -7.1292073935  CLST      51              1.0000000000
       254        51  DCM       CL1            -3.8527739586       -0.4346910915       -6.4050692258  CLST      51              1.0000000000
       255        51  DCM       CL2            -2.8841339712       -0.8086791892       -9.1326019267  CLST      51              1.0000000000
       256        52  DCM       C               4.8779609482       -2.1028802453       -4.0587373878  CLST      52              1.0000000000
       257        52  DCM       H1              5.5680872052       -2.7794162391       -3.5155553310  CLST      52              1.0000000000
       258        52  DCM       H2              4.8254510747       -2.3734397836       -5.1332588119  CLST      52              1.0000000000
       259        52  DCM       CL1             3.2504417332       -2.2409398104       -3.3442641549  CLST      52              1.0000000000
       260        52  DCM       CL2             5.4552264975       -0.4215872515       -3.9011342194  CLST      52              1.0000000000
       261        53  DCM       C             -10.8347083977       -2.3356065964        4.1520011513  CLST      53              1.0000000000
       262        53  DCM       H1            -11.3622978710       -2.7866501739        3.2850409803  CLST      53              1.0000000000
       263        53  DCM       H2             -9.9953042444       -2.9788967148        4.4873250787  CLST      53              1.0000000000
       264        53  DCM       CL1           -10.1804174730       -0.7440964277        3.6749167389  CLST      53              1.0000000000
       265        53  DCM       CL2           -11.9901518937       -2.1385796446        5.5004602265  CLST      53              1.0000000000
       266        54  DCM       C              -4.3245244503        1.8225469643        0.4507461947  CLST      54              1.0000000000
       267        54  DCM       H1             -4.6658954203        2.6073277105       -0.2575320356  CLST      54              1.0000000000
       268        54  DCM       H2             -3.2509408591        1.5905120133        0.2949495270  CLST      54              1.0000000000
       269        54  DCM       CL1            -4.5538711010        2.4019954020        2.1255723027  CLST      54              1.0000000000
       270        54  DCM       CL2            -5.2819318372        0.3357156960        0.1882728240  CLST      54              1.0000000000
       271        55  DCM       C              16.5912838469        2.2382992915       -0.1663621532  CLST      55              1.0000000000
       272        55  DCM       H1             15.6484864506        2.6645910231        0.2353351023  CLST      55              1.0000000000
       273        55  DCM       H2             17.3753753572        2.1944721655        0.6185198695  CLST      55              1.0000000000
       274        55  DCM       CL1            16.2774070082        0.5812762160       -0.7612192083  CLST      55              1.0000000000
       275        55  DCM       CL2            17.1686644537        3.2714648754       -1.5047550759  CLST      55              1.0000000000
       276        56  DCM       C              -0.8281165931        1.6818197328      -10.6873925638  CLST      56              1.0000000000
       277        56  DCM       H1             -1.7533416526        2.2595778359      -10.9039925903  CLST      56              1.0000000000
       278        56  DCM       H2             -0.9935626323        0.5946434378      -10.8296735688  CLST      56              1.0000000000
       279        56  DCM       CL1             0.4676713394        2.2007217136      -11.8015179852  CLST      56              1.0000000000
       280        56  DCM       CL2            -0.3314995089        1.9737727895       -8.9948337409  CLST      56              1.0000000000
       281        57  DCM       C              -8.1683825457       -6.3614164195        4.4089692895  CLST      57              1.0000000000
       282        57  DCM       H1             -7.3539880298       -5.6546277344        4.1475457342  CLST      57              1.0000000000
       283        57  DCM       H2             -8.2862975753       -6.4398523492        5.5104483666  CLST      57              1.0000000000
       284        57  DCM       CL1            -9.7003904028       -5.7797726882        3.6971504848  CLST      57              1.0000000000
       285        57  DCM       CL2            -7.7662051660       -7.9711898482        3.7461689303  CLST      57              1.0000000000
       286        58  DCM       C              -6.2096560156        0.4975923586       -3.8055054533  CLST      58              1.0000000000
       287        58  DCM       H1             -6.6952244259        0.6073188719       -4.7982109039  CLST      58              1.0000000000
       288        58  DCM       H2             -5.1808147211        0.0961135001       -3.9042659413  CLST      58              1.0000000000
       289        58  DCM       CL1            -6.1348574957        2.0912319178       -3.0036970492  CLST      58              1.0000000000
       290        58  DCM       CL2            -7.1687777353       -0.6294572536       -2.8116242903  CLST      58              1.0000000000
       291        59  DCM       C              12.6041648514        7.0787273733        2.6707640112  CLST      59              1.0000000000
       292        59  DCM       H1             13.6299236280        6.9649818343        2.2608204495  CLST      59              1.0000000000
       293        59  DCM       H2             12.6288203451        7.4990323354        3.6989505125  CLST      59              1.0000000000
       294        59  DCM       CL1            11.6719840324        8.1805411573        1.6159286125  CLST      59              1.0000000000
       295        59  DCM       CL2            11.8159101908        5.4763077979        2.7130481595  CLST      59              1.0000000000
       296        60  DCM       C               6.9076607583       10.8059316553        5.1736121946  CLST      60              1.0000000000
       297        60  DCM       H1              7.1139762999       11.8135665328        5.5924614347  CLST      60              1.0000000000
       298        60  DCM       H2              7.7516842024       10.4548318171        4.5431612377  CLST      60              1.0000000000
       299        60  DCM       CL1             6.6696550560        9.6546067867        6.5203178278  CLST      60              1.0000000000
       300        60  DCM       CL2             5.4277589409       10.8818468431        4.1729836666  CLST      60              1.0000000000
       301        61  DCM       C               9.8041018222       -4.3944614246        1.2981569789  CLST      61              1.0000000000
       302        61  DCM       H1             10.4243022720       -4.3258181700        2.2167381885  CLST      61              1.0000000000
       303        61  DCM       H2              9.0724786322       -5.2258550517        1.3715362048  CLST      61              1.0000000000
       304        61  DCM       CL1             8.9180583328       -2.8578469328        1.0797321717  CLST      61              1.0000000000
       305        61  DCM       CL2            10.8730333653       -4.6873161890       -0.1041930114  CLST      61              1.0000000000
       306        62  DCM       C               6.1707294052       -7.4105110530        2.6128797658  CLST      62              1.0000000000
       307        62  DCM       H1              5.9193333237       -6.6076543157        1.8887473236  CLST      62              1.0000000000
       308        62  DCM       H2              5.4843493235       -7.3881506508        3.4846350080  CLST      62              1.0000000000
       309        62  DCM       CL1             7.8444414468       -7.1709846521        3.1898922490  CLST      62              1.0000000000
       310        62  DCM       CL2             6.0268961843       -8.9924927360        1.7931460137  CLST      62              1.0000000000
       311        63  DCM       C              -1.4110404181      -12.3051268617       -1.5763933177  CLST      63              1.0000000000
       312        63  DCM       H1             -2.0472687658      -12.8721792463       -2.2887175833  CLST      63              1.0000000000
       313        63  DCM       H2             -1.2949370063      -12.8528789722       -0.6171387914  CLST      63              1.0000000000
       314        63  DCM       CL1             0.2010357532      -12.0544003345       -2.3071539693  CLST      63              1.0000000000
       315        63  DCM       CL2            -2.1739498189      -10.7243912946       -1.2549020900  CLST      63              1.0000000000
       316        64  DCM       C               7.3326877018       -1.5819970793       -7.0844691653  CLST      64              1.0000000000
       317        64  DCM       H1              8.0982378626       -1.4062927803       -7.8696382273  CLST      64              1.0000000000
       318        64  DCM       H2              7.7124462629       -1.2919467573       -6.0816854958  CLST      64              1.0000000000
       319        64  DCM       CL1             5.8824481549       -0.6097451240       -7.4621671220  CLST      64              1.0000000000
       320        64  DCM       CL2             6.9053533408       -3.3169547062       -7.0683194415  CLST      64              1.0000000000
       321        65  DCM       C               0.9378731766      -11.8356369571        3.2942052144  CLST      65              1.0000000000
       322        65  DCM       H1              0.3977622056      -11.2169205882        4.0415917118  CLST      65              1.0000000000
       323        65  DCM       H2              2.0294918323      -11.8454037768        3.5000855501  CLST      65              1.0000000000
       324        65  DCM       CL1             0.3146137775      -13.5087077534        3.3699263900  CLST      65              1.0000000000
       325        65  DCM       CL2             0.6589829673      -11.1607977966        1.6622231116  CLST      65              1.0000000000
       326        66  DCM       C              -5.0162418684        7.1761027138       -0.1475053662  CLST      66              1.0000000000
       327        66  DCM       H1             -5.5764949657        7.8408749384        0.5442289436  CLST      66              1.0000000000
       328        66  DCM       H2             -5.6517228855        6.8501909136       -0.9966735595  CLST      66              1.0000000000
       329        66  DCM       CL1            -3.6044580050        8.0591938303       -0.7912494401  CLST      66              1.0000000000
       330        66  DCM       CL2            -4.4643604437        5.7333292314        0.7488392956  CLST      66              1.0000000000
       331        67  DCM       C              -9.1007729193       -2.1918500824        8.0022105765  CLST      67              1.0000000000
       332        67  DCM       H1            -10.1456357139       -1.8519437740        8.1648925023  CLST      67              1.0000000000
       333        67  DCM       H2             -8.5518707241       -2.2795452383        8.9637417591  CLST      67              1.0000000000
       334        67  DCM       CL1            -9.1296144918       -3.7913288287        7.2013624086  CLST      67              1.0000000000
       335        67  DCM       CL2            -8.2607411848       -1.0018638993        6.9654655772  CLST      67              1.0000000000
       336        68  DCM       C              -0.5269303271        9.7459925098       -2.3898145532  CLST      68              1.0000000000
       337        68  DCM       H1              0.4565675938       10.1536544224       -2.0742398043  CLST      68              1.0000000000
       338        68  DCM       H2             -0.8009879779        8.8543868903       -1.7885443640  CLST      68              1.0000000000
       339        68  DCM       CL1            -1.7790498468       11.0010672610       -2.1644014263  CLST      68              1.0000000000
       340        68  DCM       CL2            -0.4371134032        9.2759058007       -4.1108161490  CLST      68              1.0000000000
       341        69  DCM       C              -8.2447642794       10.2180433389       -3.2094243790  CLST      69              1.0000000000
       342        69  DCM       H1             -7.9648473366        9.4504963558       -3.9615379284  CLST      69              1.0000000000
       343        69  DCM       H2             -8.2013974285       11.2386169384       -3.6445970316  CLST      69              1.0000000000
       344        69  DCM       CL1            -7.1108616017       10.1225114234       -1.8311862285  CLST      69              1.0000000000
       345        69  DCM       CL2            -9.9126087229        9.9032741839       -2.6481872062  CLST      69              1.0000000000
       346        70  DCM       C              -2.1071339031       -0.6110398566       -2.7428856475  CLST      70              1.0000000000
       347        70  DCM       H1             -2.3839874822       -1.0348961787       -3.7303084504  CLST      70              1.0000000000
       348        70  DCM       H2             -1.0052224363       -0.5912471583       -2.6167013127  CLST      70              1.0000000000
       349        70  DCM       CL1            -2.7335666093        1.0552153695       -2.6262182805  CLST      70              1.0000000000
       350        70  DCM       CL2            -2.8211102942       -1.6128713711       -1.4478084483  CLST      70              1.0000000000
       351        71  DCM       C               2.4620753795       -0.5415327433       -9.7906690505  CLST      71              1.0000000000
       352        71  DCM       H1              2.2262352140        0.5378385225       -9.6833378086  CLST      71              1.0000000000
       353        71  DCM       H2              3.1779016839       -0.8711432177       -9.0084403729  CLST      71              1.0000000000
       354        71  DCM       CL1             3.1902665355       -0.8143975693      -11.3989340102  CLST      71              1.0000000000
       355        71  DCM       CL2             0.9513359964       -1.4851981530       -9.6373706900  CLST      71              1.0000000000
       356        72  DCM       C              -8.0850894162        4.6743556330        3.6488410357  CLST      72              1.0000000000
       357        72  DCM       H1             -8.1261716530        4.9049999928        4.7343810649  CLST      72              1.0000000000
       358        72  DCM       H2             -7.4470512789        3.7872080517        3.4522386671  CLST      72              1.0000000000
       359        72  DCM       CL1            -7.4015393028        6.0784475684        2.7840621463  CLST      72              1.0000000000
       360        72  DCM       CL2            -9.7417083793        4.3509440675        3.0586685308  CLST      72              1.0000000000
       361        73  DCM       C              -2.6506369851       -3.6349621049       10.0565340721  CLST      73              1.0000000000
       362        73  DCM       H1             -1.9926344825       -2.9498778586       10.6309063531  CLST      73              1.0000000000
       363        73  DCM       H2             -2.8839589456       -3.2121133886        9.0580154128  CLST      73              1.0000000000
       364        73  DCM       CL1            -1.8150163600       -5.2020772647        9.8534899245  CLST      73              1.0000000000
       365        73  DCM       CL2            -4.1768877684       -3.8743933884       10.9534625217  CLST      73              1.0000000000
       366        74  DCM       C               9.2714676497        6.0868365722       -0.1894313162  CLST      74              1.0000000000
       367        74  DCM       H1             10.3796511602        6.1322278740       -0.1462247281  CLST      74              1.0000000000
       368        74  DCM       H2              8.8258366349        7.0886685843       -0.0127074856  CLST      74              1.0000000000
       369        74  DCM       CL1             8.7739309409        5.4978520903       -1.8005058944  CLST      74              1.0000000000
       370        74  DCM       CL2             8.6869996710        4.9613236835        1.0662694762  CLST      74              1.0000000000
       371        75  DCM       C               1.0033077247        2.6128180383       -3.7428738611  CLST      75              1.0000000000
       372        75  DCM       H1              1.9677149877        2.6876830015       -4.2886257408  CLST      75              1.0000000000
       373        75  DCM       H2              0.7594014265        3.5754240319       -3.2470987961  CLST      75              1.0000000000
       374        75  DCM       CL1             1.1317709361        1.3316999881       -2.5033161707  CLST      75              1.0000000000
       375        75  DCM       CL2            -0.2964439783        2.2022093284       -4.8998714687  CLST      75              1.0000000000
       376        76  DCM       C              -8.4721425969        2.2004565792        0.1357616285  CLST      76              1.0000000000
       377        76  DCM       H1             -8.1933628217        1.4582332519       -0.6420735439  CLST      76              1.0000000000
       378        76  DCM       H2             -9.5391696670        2.4951744782        0.0462770169  CLST      76              1.0000000000
       379        76  DCM       CL1            -8.2081725862        1.4787511079        1.7463903535  CLST      76              1.0000000000
       380        76  DCM       CL2            -7.4465451869        3.6509231313       -0.0489971583  CLST      76              1.0000000000
       381        77  DCM       C              -8.8357809243        6.8869811928       -0.6749125537  CLST      77              1.0000000000
       382        77  DCM       H1             -9.0473390220        7.9746688113       -0.6422949001  CLST      77              1.0000000000
       383        77  DCM       H2             -8.0432071640        6.6142902236        0.0516625058  CLST      77              1.0000000000
       384        77  DCM       CL1           -10.3290581455        5.9926071196       -0.2715939892  CLST      77              1.0000000000
       385        77  DCM       CL2            -8.2899781775        6.4531490214       -2.3197072087  CLST      77              1.0000000000
       386        78  DCM       C             -10.5649623781        1.9456174790        6.0067202398  CLST      78              1.0000000000
       387        78  DCM       H1            -11.2760834295        2.0165813032        5.1551958730  CLST      78              1.0000000000
       388        78  DCM       H2             -9.6150972483        1.4652612812        5.6931528061  CLST      78              1.0000000000
       389        78  DCM       CL1           -10.2095406179        3.5880793792        6.6159241033  CLST      78              1.0000000000
       390        78  DCM       CL2           -11.3076456181        0.9654959509        7.3047728217  CLST      78              1.0000000000
       391        79  DCM       C               3.6797111972       -4.8318799411       -8.2035618037  CLST      79              1.0000000000
       392        79  DCM       H1              4.5699755722       -5.2723921851       -7.7067131115  CLST      79              1.0000000000
       393        79  DCM       H2              2.8235132296       -5.5392670304       -8.1951802616  CLST      79              1.0000000000
       394        79  DCM       CL1             3.2087771354       -3.3448022912       -7.3355936072  CLST      79              1.0000000000
       395        79  DCM       CL2             4.0941508568       -4.4311298138       -9.8950185927  CLST      79              1.0000000000
       396        80  DCM       C              -4.1287608908       -8.0338971821        1.4521433216  CLST      80              1.0000000000
       397        80  DCM       H1             -4.4880268382       -9.0782695586        1.3435659878  CLST      80              1.0000000000
       398        80  DCM       H2             -4.7438450546       -7.3404090103        0.8426237376  CLST      80              1.0000000000
       399        80  DCM       CL1            -4.2380369180       -7.5572418958        3.1678202565  CLST      80              1.0000000000
       400        80  DCM       CL2            -2.4290290373       -7.9326173495        0.9166829508  CLST      80              1.0000000000
       401        81  DCM       C               4.0771816654       -5.7436551669        6.0241032201  CLST      81              1.0000000000
       402        81  DCM       H1              3.3179259792       -5.9872157059        5.2528904816  CLST      81              1.0000000000
       403        81  DCM       H2              4.7807686122       -4.9664189755        5.6589976421  CLST      81              1.0000000000
       404        81  DCM       CL1             3.2434932055       -5.1357985012        7.4833295453  CLST      81              1.0000000000
       405        81  DCM       CL2             4.9974028270       -7.2230680370        6.4207536600  CLST      81              1.0000000000
       406        82  DCM       C              14.1218954860        2.5999610494        3.4573933375  CLST      82              1.0000000000
       407        82  DCM       H1             14.3244729917        2.4577325823        4.5405375425  CLST      82              1.0000000000
       408        82  DCM       H2             13.0555435624        2.8481078162        3.2814248350  CLST      82              1.0000000000
       409        82  DCM       CL1            15.1329700437        3.9415715771        2.8437190191  CLST      82              1.0000000000
       410        82  DCM       CL2            14.5201884447        1.0927550412        2.5868600436  CLST      82              1.0000000000
       411        83  DCM       C               2.5017849681        0.0110989999       -5.8770529977  CLST      83              1.0000000000
       412        83  DCM       H1              3.2994213329       -0.6807867827       -6.2124890367  CLST      83              1.0000000000
       413        83  DCM       H2              2.6542510477        0.3055429398       -4.8180122990  CLST      83              1.0000000000
       414        83  DCM       CL1             2.5436659929        1.4747252807       -6.9000647378  CLST      83              1.0000000000
       415        83  DCM       CL2             0.9244471360       -0.8165497382       -6.0301241371  CLST      83              1.0000000000
       416        84  DCM       C              -5.4651513492       -5.4234494955        7.8831302546  CLST      84              1.0000000000
       417        84  DCM       H1             -4.5846540089       -5.5892294899        8.5384372378  CLST      84              1.0000000000
       418        84  DCM       H2             -6.3974160934       -5.7909381468        8.3614412937  CLST      84              1.0000000000
       419        84  DCM       CL1            -5.6317896676       -3.6741541173        7.5630075736  CLST      84              1.0000000000
       420        84  DCM       CL2            -5.2107159087       -6.2994549579        6.3477586134  CLST      84              1.0000000000
       421        85  DCM       C               5.9773892770        7.3236293830        3.5326449012  CLST      85              1.0000000000
       422        85  DCM       H1              6.3309259909        7.4222178928        4.5802732536  CLST      85              1.0000000000
       423        85  DCM       H2              5.0122056607        7.8538671683        3.3878799324  CLST      85              1.0000000000
       424        85  DCM       CL1             7.1993766313        8.0325938887        2.4363724294  CLST      85              1.0000000000
       425        85  DCM       CL2             5.7538572886        5.5901973103        3.1566731232  CLST      85              1.0000000000
       426        86  DCM       C              -3.6957170798       -0.6270143044       12.9709995387  CLST      86              1.0000000000
       427        86  DCM       H1             -4.0180495800       -1.6805935079       12.8467884515  CLST      86              1.0000000000
       428        86  DCM       H2             -4.5438930180        0.0713110571       12.8027647684  CLST      86              1.0000000000
       429        86  DCM       CL1            -3.0740828333       -0.4113750741       14.6335801578  CLST      86              1.0000000000
       430        86  DCM       CL2            -2.4020781074       -0.2732770310       11.7884821885  CLST      86              1.0000000000
       431        87  DCM       C              -3.6685154457       -7.3551481000       -2.4489558833  CLST      87              1.0000000000
       432        87  DCM       H1             -3.3826745930       -8.1671168433       -1.7518236685  CLST      87              1.0000000000
       433        87  DCM       H2             -3.6679133567       -7.7234140216       -3.4962501728  CLST      87              1.0000000000
       434        87  DCM       CL1            -5.3032182423       -6.7811793798       -2.0235887307  CLST      87              1.0000000000
       435        87  DCM       CL2            -2.5053973403       -6.0103627982       -2.2932843193  CLST      87              1.0000000000
       436        88  DCM       C              -9.4012106100       10.4205342100        1.0708043413  CLST      88              1.0000000000
       437        88  DCM       H1            -10.1943823240        9.6541166613        0.9414139281  CLST      88              1.0000000000
       438        88  DCM       H2             -9.2299635126       10.9777458325        0.1269032960  CLST      88              1.0000000000
       439        88  DCM       CL1            -9.9047099673       11.5743076643        2.3385283006  CLST      88              1.0000000000
       440        88  DCM       CL2            -7.8796029737        9.6157690214        1.5526596170  CLST      88              1.0000000000
       441        89  DCM       C              12.1237672724        6.1819680267        7.8569503442  CLST      89              1.0000000000
       442        89  DCM       H1             11.2563348457        5.5117415484        7.6785050623  CLST      89              1.0000000000
       443        89  DCM       H2             12.7180106531        5.8413642548        8.7311374270  CLST      89              1.0000000000
       444        89  DCM       CL1            13.1692071023        6.1859819372        6.4053262404  CLST      89              1.0000000000
       445        89  DCM       CL2            11.5211803442        7.8345888094        8.1736298781  CLST      89              1.0000000000
       446        90  DCM       C              -2.1332295903       -4.8354472981       13.9600455670  CLST      90              1.0000000000
       447        90  DCM       H1             -2.2417727502       -5.5325521319       13.1014109462  CLST      90              1.0000000000
       448        90  DCM       H2             -1.6245402285       -5.3282337775       14.8150496628  CLST      90              1.0000000000
       449        90  DCM       CL1            -1.1618573496       -3.4254405567       13.4484098331  CLST      90              1.0000000000
       450        90  DCM       CL2            -3.7554377816       -4.2957521903       14.4844392869  CLST      90              1.0000000000
       451        91  DCM       C              -8.4817227088       -6.9870630569        0.0227380637  CLST      91              1.0000000000
       452        91  DCM       H1             -7.8684117457       -6.2350378953       -0.5162455946  CLST      91              1.0000000000
       453        91  DCM       H2             -8.6884704630       -6.6582720262        1.0624029248  CLST      91              1.0000000000
       454        91  DCM       CL1           -10.0329795426       -7.1954012898       -0.8393923283  CLST      91              1.0000000000
       455        91  DCM       CL2            -7.5937992984       -8.5385928053        0.0693074705  CLST      91              1.0000000000
       456        92  DCM       C               2.7318555838        4.0430012889        0.7553727274  CLST      92              1.0000000000
       457        92  DCM       H1              3.7432055106        4.4600525274        0.5710830272  CLST      92              1.0000000000
       458        92  DCM       H2              2.7540503211        2.9324514149        0.7704300569  CLST      92              1.0000000000
       459        92  DCM       CL1             2.1435943866        4.6439015631        2.3324521144  CLST      92              1.0000000000
       460        92  DCM       CL2             1.6400803810        4.5859644908       -0.5511924098  CLST      92              1.0000000000
       461        93  DCM       C              -8.0384756049       14.3530969781       -0.4854448528  CLST      93              1.0000000000
       462        93  DCM       H1             -8.5359213248       15.0664007439        0.2053388303  CLST      93              1.0000000000
       463        93  DCM       H2             -7.3733345967       14.8839929181       -1.1989780736  CLST      93              1.0000000000
       464        93  DCM       CL1            -9.2869826112       13.4624534873       -1.4045568221  CLST      93              1.0000000000
       465        93  DCM       CL2            -7.0609727510       13.2059569024        0.4722353351  CLST      93              1.0000000000
       466        94  DCM       C              -0.6976963880       -5.0204922361        2.1794021238  CLST      94              1.0000000000
       467        94  DCM       H1             -1.3661725127       -5.5954044163        2.8540377174  CLST      94              1.0000000000
       468        94  DCM       H2              0.1259052077       -5.6558002062        1.7986897103  CLST      94              1.0000000000
       469        94  DCM       CL1            -1.6512188204       -4.4225967429        0.7972620701  CLST      94              1.0000000000
       470        94  DCM       CL2            -0.0091812639       -3.6374965473        3.0738114077  CLST      94              1.0000000000
       471        95  DCM       C              -2.0557533220        4.5828943116       -2.9496569882  CLST      95              1.0000000000
       472        95  DCM       H1             -1.6966332597        3.7620673730       -2.2930052709  CLST      95              1.0000000000
       473        95  DCM       H2             -1.8678994238        4.3570573192       -4.0196315801  CLST      95              1.0000000000
       474        95  DCM       CL1            -3.8123326991        4.8019751756       -2.7154406399  CLST      95              1.0000000000
       475        95  DCM       CL2            -1.1952707355        6.0850513028       -2.5150302408  CLST      95              1.0000000000
       476        96  DCM       C               7.2691608190       -4.6324866134        7.8001430092  CLST      96              1.0000000000
       477        96  DCM       H1              6.1729848061       -4.4590003600        7.8246015824  CLST      96              1.0000000000
       478        96  DCM       H2              7.5393362613       -5.5490748172        8.3661502900  CLST      96              1.0000000000
       479        96  DCM       CL1             7.7959313425       -4.8200539191        6.1017644788  CLST      96              1.0000000000
       480        96  DCM       CL2             8.0915682800       -3.2280784105        8.5374549787  CLST      96              1.0000000000
       481        97  DCM       C              -8.3997543950       -6.2138260400       -7.9536321859  CLST      97              1.0000000000
       482        97  DCM       H1             -8.8936177189       -7.1565548313       -7.6360597522  CLST      97              1.0000000000
       483        97  DCM       H2             -7.2960166615       -6.3208315055       -7.9417731998  CLST      97              1.0000000000
       484        97  DCM       CL1            -8.9171066945       -5.8070827250       -9.6149671608  CLST      97              1.0000000000
       485        97  DCM       CL2            -8.8637787116       -4.9027502632       -6.8312872103  CLST      97              1.0000000000
       486        98  DCM       C               3.9681365058        3.0461198068      -10.6986486565  CLST      98              1.0000000000
       487        98  DCM       H1              4.5707195744        3.7720185391      -11.2843946502  CLST      98              1.0000000000
       488        98  DCM       H2              3.3992338726        2.3668307782      -11.3675473299  CLST      98              1.0000000000
       489        98  DCM       CL1             5.0624717319        2.0720008605       -9.6771657968  CLST      98              1.0000000000
       490        98  DCM       CL2             2.8224156659        3.9458364476       -9.6644424544  CLST      98              1.0000000000
