* PRE_MLPOT:MONOMER_REPACK
*  DATE:     6/28/26      1:57:53      CREATED BY USER: boittier
*
       475  EXT
         1         1  DCM       C              -0.2198257766        1.3911614278        2.9536368548  CLST      1               1.0000000000
         2         1  DCM       H1             -0.3123693972        1.6596313260        4.0267147800  CLST      1               1.0000000000
         3         1  DCM       H2              0.0000982857        2.2870458101        2.3358401215  CLST      1               1.0000000000
         4         1  DCM       CL1            -1.7538638632        0.6622976096        2.3982811028  CLST      1               1.0000000000
         5         1  DCM       CL2             1.1094655321        0.2145110046        2.7637932038  CLST      1               1.0000000000
         6         2  DCM       C               2.9287981357        0.9336844676       -1.3180018217  CLST      2               1.0000000000
         7         2  DCM       H1              3.2990458881        1.6858486874       -2.0454868510  CLST      2               1.0000000000
         8         2  DCM       H2              2.6201062738        1.4148209815       -0.3664532185  CLST      2               1.0000000000
         9         2  DCM       CL1             1.5238874346        0.0902055426       -2.0263625109  CLST      2               1.0000000000
        10         2  DCM       CL2             4.2289556678       -0.2422302822       -0.9782221992  CLST      2               1.0000000000
        11         3  DCM       C               3.3280532249       -0.6886403817       -1.4758081685  CLST      3               1.0000000000
        12         3  DCM       H1              3.3618415249        0.2856544381       -2.0053493124  CLST      3               1.0000000000
        13         3  DCM       H2              2.8905750568       -0.5741415833       -0.4615526302  CLST      3               1.0000000000
        14         3  DCM       CL1             2.3199012169       -1.8233308121       -2.4185802844  CLST      3               1.0000000000
        15         3  DCM       CL2             4.9906227257       -1.3302662974       -1.3294256209  CLST      3               1.0000000000
        16         4  DCM       C              -1.1235353824       -2.0836772643       -2.4742532529  CLST      4               1.0000000000
        17         4  DCM       H1             -0.2694080695       -2.4110674709       -1.8440390903  CLST      4               1.0000000000
        18         4  DCM       H2             -1.6564924387       -1.2248777168       -2.0141190851  CLST      4               1.0000000000
        19         4  DCM       CL1            -2.2671884901       -3.4442738017       -2.6558590743  CLST      4               1.0000000000
        20         4  DCM       CL2            -0.5075636003       -1.5926548268       -4.0780755930  CLST      4               1.0000000000
        21         5  DCM       C              -2.9822640006        1.8612201713        2.4062670201  CLST      5               1.0000000000
        22         5  DCM       H1             -3.1429739138        1.9125964225        1.3100527853  CLST      5               1.0000000000
        23         5  DCM       H2             -3.9472831484        1.9140465996        2.9529285605  CLST      5               1.0000000000
        24         5  DCM       CL1            -2.1778895449        0.3159621412        2.7952720148  CLST      5               1.0000000000
        25         5  DCM       CL2            -1.9466853113        3.2288819243        2.9047519835  CLST      5               1.0000000000
        26         6  DCM       C               0.1889479672        2.1523533437       -3.5204509791  CLST      6               1.0000000000
        27         6  DCM       H1             -0.5726608272        1.9747573533       -2.7329659270  CLST      6               1.0000000000
        28         6  DCM       H2              0.6592853900        3.1506115425       -3.4043911833  CLST      6               1.0000000000
        29         6  DCM       CL1             1.4575471387        0.9001886989       -3.3948160961  CLST      6               1.0000000000
        30         6  DCM       CL2            -0.6011782567        2.0636851910       -5.1212942870  CLST      6               1.0000000000
        31         7  DCM       C              -3.5931492064       -1.0447027790        0.4996584896  CLST      7               1.0000000000
        32         7  DCM       H1             -2.9988351679       -1.9823918741        0.4626849232  CLST      7               1.0000000000
        33         7  DCM       H2             -3.7985651104       -0.7393562048        1.5476155637  CLST      7               1.0000000000
        34         7  DCM       CL1            -2.6794460393        0.2552091942       -0.3190607006  CLST      7               1.0000000000
        35         7  DCM       CL2            -5.1473188589       -1.3122819390       -0.3403705959  CLST      7               1.0000000000
        36         8  DCM       C               1.6802909591        1.7891044436       -1.5127635225  CLST      8               1.0000000000
        37         8  DCM       H1              2.1637332722        1.7287963446       -0.5144174645  CLST      8               1.0000000000
        38         8  DCM       H2              0.5738171488        1.7599688425       -1.4217405087  CLST      8               1.0000000000
        39         8  DCM       CL1             2.1590875065        3.3212022875       -2.2995453760  CLST      8               1.0000000000
        40         8  DCM       CL2             2.2186183697        0.4053243587       -2.5090694075  CLST      8               1.0000000000
        41         9  DCM       C               1.5681775206       -0.3291177240       -0.9309240461  CLST      9               1.0000000000
        42         9  DCM       H1              2.3515721822       -0.8315919318       -1.5370885823  CLST      9               1.0000000000
        43         9  DCM       H2              0.6343609085       -0.9296173192       -0.9089039772  CLST      9               1.0000000000
        44         9  DCM       CL1             2.1689777114       -0.1230273091        0.7392245381  CLST      9               1.0000000000
        45         9  DCM       CL2             1.2165988040        1.2714510483       -1.6439515604  CLST      9               1.0000000000
        46        10  DCM       C              -2.8784190229       -1.3742431130        1.8549955200  CLST      10              1.0000000000
        47        10  DCM       H1             -3.8655164295       -1.6035488585        2.3077416283  CLST      10              1.0000000000
        48        10  DCM       H2             -2.6713566695       -0.2854050228        1.8754157354  CLST      10              1.0000000000
        49        10  DCM       CL1            -1.6079514533       -2.2170774079        2.7813391359  CLST      10              1.0000000000
        50        10  DCM       CL2            -2.8610026074       -1.9276423933        0.1566209387  CLST      10              1.0000000000
        51        11  DCM       C              -1.9710925654       -0.7775399074        0.9389045449  CLST      11              1.0000000000
        52        11  DCM       H1             -1.5403070430       -0.9462429657       -0.0705819474  CLST      11              1.0000000000
        53        11  DCM       H2             -3.0647895218       -0.5931159197        0.8805068684  CLST      11              1.0000000000
        54        11  DCM       CL1            -1.6746789293       -2.2280119066        1.9395246770  CLST      11              1.0000000000
        55        11  DCM       CL2            -1.1779071439        0.6470756448        1.6725347318  CLST      11              1.0000000000
        56        12  DCM       C               1.6313533226       -1.2062095011       -3.2235597601  CLST      12              1.0000000000
        57        12  DCM       H1              0.6770436919       -0.8024971696       -3.6226728040  CLST      12              1.0000000000
        58        12  DCM       H2              2.4994805618       -0.6370394354       -3.6176459801  CLST      12              1.0000000000
        59        12  DCM       CL1             1.6165194221       -1.0862823138       -1.4400308239  CLST      12              1.0000000000
        60        12  DCM       CL2             1.7830885168       -2.9183353196       -3.7122155852  CLST      12              1.0000000000
        61        13  DCM       C               0.0847022018        0.6450560581       -2.6322651506  CLST      13              1.0000000000
        62        13  DCM       H1              0.7647683992        0.6949055829       -1.7573228888  CLST      13              1.0000000000
        63        13  DCM       H2             -0.6199736721        1.5015445892       -2.6397816942  CLST      13              1.0000000000
        64        13  DCM       CL1             1.0622177077        0.6730281390       -4.1277537637  CLST      13              1.0000000000
        65        13  DCM       CL2            -0.8570204774       -0.8666698131       -2.5450542312  CLST      13              1.0000000000
        66        14  DCM       C              -2.8091089692        1.0770795145        1.0907679056  CLST      14              1.0000000000
        67        14  DCM       H1             -3.5662930340        1.8378300450        1.3760439949  CLST      14              1.0000000000
        68        14  DCM       H2             -2.0242914099        0.9842731755        1.8709176137  CLST      14              1.0000000000
        69        14  DCM       CL1            -3.6183930490       -0.5037597665        0.8931736803  CLST      14              1.0000000000
        70        14  DCM       CL2            -2.0474403606        1.5629552393       -0.4516427069  CLST      14              1.0000000000
        71        15  DCM       C              -2.4806562520       -1.9376441072       -1.1601561990  CLST      15              1.0000000000
        72        15  DCM       H1             -3.1100217573       -2.2044594727       -0.2854226708  CLST      15              1.0000000000
        73        15  DCM       H2             -2.4508119285       -0.8375178388       -1.3079689467  CLST      15              1.0000000000
        74        15  DCM       CL1            -0.8176177099       -2.5321738072       -0.8870395856  CLST      15              1.0000000000
        75        15  DCM       CL2            -3.1642860134       -2.7066968756       -2.6221968462  CLST      15              1.0000000000
        76        16  DCM       C              -2.2455831312        2.8901836417       -2.2317287239  CLST      16              1.0000000000
        77        16  DCM       H1             -2.1500258156        2.6063334311       -3.3001926043  CLST      16              1.0000000000
        78        16  DCM       H2             -1.3931053584        3.5243579904       -1.9118377341  CLST      16              1.0000000000
        79        16  DCM       CL1            -2.2738511495        1.4065887638       -1.2394471024  CLST      16              1.0000000000
        80        16  DCM       CL2            -3.7692237427        3.7929767050       -2.0002808098  CLST      16              1.0000000000
        81        17  DCM       C              -0.6586255005       -1.0027841385        0.8310221243  CLST      17              1.0000000000
        82        17  DCM       H1             -0.0847206534       -0.7116901466       -0.0731241899  CLST      17              1.0000000000
        83        17  DCM       H2             -0.5997503902       -2.0969054390        1.0072196791  CLST      17              1.0000000000
        84        17  DCM       CL1             0.0219633143       -0.1541095095        2.2434747717  CLST      17              1.0000000000
        85        17  DCM       CL2            -2.3680662340       -0.5389461078        0.6148781501  CLST      17              1.0000000000
        86        18  DCM       C               1.1713268374        0.8602311565        1.8677397355  CLST      18              1.0000000000
        87        18  DCM       H1              0.4279739026        1.0756077922        2.6629906245  CLST      18              1.0000000000
        88        18  DCM       H2              0.7099517221        0.9356892559        0.8603566304  CLST      18              1.0000000000
        89        18  DCM       CL1             2.5087373155        2.0398305769        1.9897783945  CLST      18              1.0000000000
        90        18  DCM       CL2             1.7986509358       -0.7968132505        2.0974019455  CLST      18              1.0000000000
        91        19  DCM       C               0.8793707431        2.4142472556        0.1529327084  CLST      19              1.0000000000
        92        19  DCM       H1              0.5616840062        2.3442384589        1.2142324215  CLST      19              1.0000000000
        93        19  DCM       H2              1.9771958153        2.2795092427        0.0577182855  CLST      19              1.0000000000
        94        19  DCM       CL1             0.0534972544        1.1425400287       -0.7914460718  CLST      19              1.0000000000
        95        19  DCM       CL2             0.4303103044        4.0220027366       -0.4835046584  CLST      19              1.0000000000
        96        20  DCM       C               1.3271803939       -0.4582359557        0.0853632107  CLST      20              1.0000000000
        97        20  DCM       H1              0.4753159286       -0.3195215292        0.7832857368  CLST      20              1.0000000000
        98        20  DCM       H2              1.8507521458        0.5029512237       -0.1016779776  CLST      20              1.0000000000
        99        20  DCM       CL1             2.4808719875       -1.6196163417        0.8031287991  CLST      20              1.0000000000
       100        20  DCM       CL2             0.7085231794       -1.0961565097       -1.4657759496  CLST      20              1.0000000000
       101        21  DCM       C               0.6557163233       -0.7931894921       -2.3005003182  CLST      21              1.0000000000
       102        21  DCM       H1             -0.1421210000       -1.2643841034       -2.9102125204  CLST      21              1.0000000000
       103        21  DCM       H2              0.8586590079       -1.3848972200       -1.3832609103  CLST      21              1.0000000000
       104        21  DCM       CL1             2.1475786663       -0.7053197994       -3.2796913293  CLST      21              1.0000000000
       105        21  DCM       CL2             0.1270356899        0.8456848078       -1.8277126665  CLST      21              1.0000000000
       106        22  DCM       C               0.8500652316       -2.7165304177        1.7388790830  CLST      22              1.0000000000
       107        22  DCM       H1              0.0491899025       -3.4025992362        1.3909077153  CLST      22              1.0000000000
       108        22  DCM       H2              0.7854941085       -2.5500419340        2.8351287020  CLST      22              1.0000000000
       109        22  DCM       CL1             2.4395461904       -3.4391191078        1.3538023345  CLST      22              1.0000000000
       110        22  DCM       CL2             0.6758147071       -1.1467564027        0.9000669891  CLST      22              1.0000000000
       111        23  DCM       C               0.8889208718        0.2713315020       -0.8783929436  CLST      23              1.0000000000
       112        23  DCM       H1              1.2990785040        0.8890801935       -1.7049529378  CLST      23              1.0000000000
       113        23  DCM       H2              1.1204472580        0.7235819634        0.1091921162  CLST      23              1.0000000000
       114        23  DCM       CL1            -0.8856650165        0.1548797200       -1.0624599368  CLST      23              1.0000000000
       115        23  DCM       CL2             1.6142906685       -1.3604780063       -0.9594646378  CLST      23              1.0000000000
       116        24  DCM       C              -2.1746056643        1.3688115790        0.8330077812  CLST      24              1.0000000000
       117        24  DCM       H1             -2.8517638619        2.1710381339        1.1949535376  CLST      24              1.0000000000
       118        24  DCM       H2             -1.4174203214        1.1087121524        1.6007075965  CLST      24              1.0000000000
       119        24  DCM       CL1            -3.1363871271       -0.0888542786        0.4514717804  CLST      24              1.0000000000
       120        24  DCM       CL2            -1.3289366454        1.9416698440       -0.6303662846  CLST      24              1.0000000000
       121        25  DCM       C               1.5007121558       -2.8010571848       -0.4015351609  CLST      25              1.0000000000
       122        25  DCM       H1              0.5663136044       -2.3155158150       -0.0513283192  CLST      25              1.0000000000
       123        25  DCM       H2              2.3352080102       -2.6161905495        0.3056310367  CLST      25              1.0000000000
       124        25  DCM       CL1             1.2244247561       -4.5616714720       -0.5277023723  CLST      25              1.0000000000
       125        25  DCM       CL2             1.9440160797       -2.1356192107       -1.9994254332  CLST      25              1.0000000000
       126        26  DCM       C               2.8643355259        0.7969558700        1.5920905998  CLST      26              1.0000000000
       127        26  DCM       H1              3.9178460431        1.1145233874        1.4437970765  CLST      26              1.0000000000
       128        26  DCM       H2              2.5355510549        0.1199241434        0.7763872402  CLST      26              1.0000000000
       129        26  DCM       CL1             2.7254326557       -0.0673292285        3.1500317523  CLST      26              1.0000000000
       130        26  DCM       CL2             1.8161117197        2.2443283998        1.6037843575  CLST      26              1.0000000000
       131        27  DCM       C              -0.4181127055        1.2777054753        1.1694717693  CLST      27              1.0000000000
       132        27  DCM       H1             -0.8669233161        0.9269693830        2.1228850346  CLST      27              1.0000000000
       133        27  DCM       H2              0.2009868434        2.1860216425        1.3277473324  CLST      27              1.0000000000
       134        27  DCM       CL1             0.6097343802       -0.0192642783        0.4946105798  CLST      27              1.0000000000
       135        27  DCM       CL2            -1.7281913563        1.6665355475        0.0207165186  CLST      27              1.0000000000
       136        28  DCM       C               2.7671523028        1.8084328521        0.5218362462  CLST      28              1.0000000000
       137        28  DCM       H1              2.2236934667        1.9107069196        1.4845662674  CLST      28              1.0000000000
       138        28  DCM       H2              2.9520924380        2.8016852159        0.0610120340  CLST      28              1.0000000000
       139        28  DCM       CL1             4.3356818794        1.0039789103        0.8201911331  CLST      28              1.0000000000
       140        28  DCM       CL2             1.7819021227        0.8227600743       -0.5981716830  CLST      28              1.0000000000
       141        29  DCM       C              -0.0337101249       -2.1465756180       -2.1989502150  CLST      29              1.0000000000
       142        29  DCM       H1             -0.7705054947       -2.7683126948       -2.7501813614  CLST      29              1.0000000000
       143        29  DCM       H2              1.0058026384       -2.4774890520       -2.4068411193  CLST      29              1.0000000000
       144        29  DCM       CL1            -0.2166814700       -0.4432214602       -2.7085218643  CLST      29              1.0000000000
       145        29  DCM       CL2            -0.3464844469       -2.2930948223       -0.4457449729  CLST      29              1.0000000000
       146        30  DCM       C              -0.5192172053       -2.7717635257        1.5679339893  CLST      30              1.0000000000
       147        30  DCM       H1             -1.5944305341       -2.8798145840        1.8201904659  CLST      30              1.0000000000
       148        30  DCM       H2             -0.2094116611       -1.7056421616        1.5931562030  CLST      30              1.0000000000
       149        30  DCM       CL1             0.4499445171       -3.6905117954        2.7550621227  CLST      30              1.0000000000
       150        30  DCM       CL2            -0.2424448327       -3.4208760011       -0.0741203400  CLST      30              1.0000000000
       151        31  DCM       C              -1.7913471906        1.2519114783        1.3250308498  CLST      31              1.0000000000
       152        31  DCM       H1             -1.2679016382        0.8208709014        0.4453757924  CLST      31              1.0000000000
       153        31  DCM       H2             -1.2655620012        0.9978818353        2.2698047526  CLST      31              1.0000000000
       154        31  DCM       CL1            -3.4484152289        0.5925728153        1.3902608978  CLST      31              1.0000000000
       155        31  DCM       CL2            -1.8600004893        3.0287150835        1.1519756286  CLST      31              1.0000000000
       156        32  DCM       C              -1.0693094736        2.5186693176        1.8878833345  CLST      32              1.0000000000
       157        32  DCM       H1             -0.9106605507        1.5840862670        1.3091088479  CLST      32              1.0000000000
       158        32  DCM       H2             -2.1507860990        2.6965592639        2.0689348264  CLST      32              1.0000000000
       159        32  DCM       CL1            -0.2255446558        2.3843802675        3.4572368111  CLST      32              1.0000000000
       160        32  DCM       CL2            -0.3968790867        3.8913611524        0.9645152805  CLST      32              1.0000000000
       161        33  DCM       C               2.8211932051       -2.6546540548       -0.5033864101  CLST      33              1.0000000000
       162        33  DCM       H1              3.6891527995       -2.9071600783       -1.1462317704  CLST      33              1.0000000000
       163        33  DCM       H2              3.1150718374       -1.9438524303        0.2970694080  CLST      33              1.0000000000
       164        33  DCM       CL1             1.5512208367       -1.9072802472       -1.5126049186  CLST      33              1.0000000000
       165        33  DCM       CL2             2.1982774270       -4.1518968936        0.2456186473  CLST      33              1.0000000000
       166        34  DCM       C              -2.6999140553        0.5993625307       -1.1265824838  CLST      34              1.0000000000
       167        34  DCM       H1             -1.9161887816        1.2307605147       -1.5954748145  CLST      34              1.0000000000
       168        34  DCM       H2             -3.4462622279        0.2698699170       -1.8785388012  CLST      34              1.0000000000
       169        34  DCM       CL1            -1.9338662228       -0.8445694151       -0.4050598906  CLST      34              1.0000000000
       170        34  DCM       CL2            -3.5321358768        1.5441328967        0.1414299753  CLST      34              1.0000000000
       171        35  DCM       C              -2.4123154023       -2.6216389239        2.3235275296  CLST      35              1.0000000000
       172        35  DCM       H1             -2.6323378653       -2.7623127049        3.4029943174  CLST      35              1.0000000000
       173        35  DCM       H2             -3.3185268116       -2.7859425800        1.7072268523  CLST      35              1.0000000000
       174        35  DCM       CL1            -1.8292541385       -0.9554648287        2.0529038506  CLST      35              1.0000000000
       175        35  DCM       CL2            -1.1569640253       -3.7864987742        1.8184100560  CLST      35              1.0000000000
       176        36  DCM       C               1.3851023273        2.2610495787        2.7359671321  CLST      36              1.0000000000
       177        36  DCM       H1              0.4671243668        1.9380365157        2.2014089380  CLST      36              1.0000000000
       178        36  DCM       H2              1.9380031621        1.3885213782        3.1420677747  CLST      36              1.0000000000
       179        36  DCM       CL1             2.4430346450        3.1439900320        1.5979083998  CLST      36              1.0000000000
       180        36  DCM       CL2             0.9257193923        3.3304157715        4.0924366405  CLST      36              1.0000000000
       181        37  DCM       C               1.3646435389       -1.5001255825        1.5532371150  CLST      37              1.0000000000
       182        37  DCM       H1              0.9972785115       -0.7361779022        0.8366703329  CLST      37              1.0000000000
       183        37  DCM       H2              0.9833913686       -2.5088286631        1.2910098828  CLST      37              1.0000000000
       184        37  DCM       CL1             3.1506837707       -1.5333136134        1.5139519604  CLST      37              1.0000000000
       185        37  DCM       CL2             0.7983315358       -1.0690540688        3.1917550572  CLST      37              1.0000000000
       186        38  DCM       C               2.0627304176       -0.9178517211       -0.3962706583  CLST      38              1.0000000000
       187        38  DCM       H1              2.2157403285        0.0926254164       -0.8312125184  CLST      38              1.0000000000
       188        38  DCM       H2              1.8722185673       -0.8560554799        0.6960666667  CLST      38              1.0000000000
       189        38  DCM       CL1             0.6530629333       -1.6802850441       -1.1869399531  CLST      38              1.0000000000
       190        38  DCM       CL2             3.5258018042       -1.9055551824       -0.6803324398  CLST      38              1.0000000000
       191        39  DCM       C              -1.0300267827        0.1352113627       -1.3796092779  CLST      39              1.0000000000
       192        39  DCM       H1             -2.0613831105        0.0762514109       -0.9726503115  CLST      39              1.0000000000
       193        39  DCM       H2             -0.5038397043       -0.8373795084       -1.2776743005  CLST      39              1.0000000000
       194        39  DCM       CL1            -1.1086062833        0.5762175535       -3.1105013004  CLST      39              1.0000000000
       195        39  DCM       CL2            -0.1251880333        1.3839554647       -0.4765880822  CLST      39              1.0000000000
       196        40  DCM       C               2.1707454675        2.7063879643       -2.0760968963  CLST      40              1.0000000000
       197        40  DCM       H1              1.5266014402        3.4098289158       -1.5073243614  CLST      40              1.0000000000
       198        40  DCM       H2              3.2450893582        2.9057954700       -1.8864997374  CLST      40              1.0000000000
       199        40  DCM       CL1             1.8413592261        2.8854791013       -3.8200562587  CLST      40              1.0000000000
       200        40  DCM       CL2             1.7995936937        1.0364036106       -1.5762213529  CLST      40              1.0000000000
       201        41  DCM       C              -0.7957336984       -1.3357023297        0.9629730805  CLST      41              1.0000000000
       202        41  DCM       H1             -0.7290077111       -1.3512422829        2.0714001408  CLST      41              1.0000000000
       203        41  DCM       H2             -0.7324289654       -0.2979503128        0.5723120900  CLST      41              1.0000000000
       204        41  DCM       CL1            -2.3591882443       -2.0471601141        0.4675749132  CLST      41              1.0000000000
       205        41  DCM       CL2             0.5525025286       -2.2953393661        0.2908595288  CLST      41              1.0000000000
       206        42  DCM       C               2.8706378413        0.0745521166        2.0933137322  CLST      42              1.0000000000
       207        42  DCM       H1              2.1199673659        0.8756034038        1.9297011501  CLST      42              1.0000000000
       208        42  DCM       H2              2.5992093964       -0.5510688002        2.9698419355  CLST      42              1.0000000000
       209        42  DCM       CL1             4.4665166026        0.8235880850        2.3841471396  CLST      42              1.0000000000
       210        42  DCM       CL2             2.9458746672       -0.9560163625        0.6343331042  CLST      42              1.0000000000
       211        43  DCM       C              -2.1268782061       -1.2701489520        2.6487164835  CLST      43              1.0000000000
       212        43  DCM       H1             -2.2377420745       -2.0775356318        1.8948787313  CLST      43              1.0000000000
       213        43  DCM       H2             -2.5465736942       -1.5843301340        3.6268215790  CLST      43              1.0000000000
       214        43  DCM       CL1            -0.3954004649       -0.8865753383        2.8521235305  CLST      43              1.0000000000
       215        43  DCM       CL2            -2.9965891136        0.1813192100        2.0845026352  CLST      43              1.0000000000
       216        44  DCM       C              -0.5779113037        1.8883570773       -0.1287126876  CLST      44              1.0000000000
       217        44  DCM       H1             -1.4958678298        1.5142470564       -0.6293101056  CLST      44              1.0000000000
       218        44  DCM       H2             -0.7819683764        2.8249250083        0.4319877989  CLST      44              1.0000000000
       219        44  DCM       CL1             0.0123100730        0.6446957953        1.0109783388  CLST      44              1.0000000000
       220        44  DCM       CL2             0.6692563930        2.2120222872       -1.3663925781  CLST      44              1.0000000000
       221        45  DCM       C               0.4759116380        0.5253757975        2.6025149114  CLST      45              1.0000000000
       222        45  DCM       H1             -0.5785323699        0.8511329386        2.4859327454  CLST      45              1.0000000000
       223        45  DCM       H2              0.7484941405        0.4345846989        3.6752442337  CLST      45              1.0000000000
       224        45  DCM       CL1             0.6855552064       -1.0641782050        1.8143512456  CLST      45              1.0000000000
       225        45  DCM       CL2             1.5425304441        1.7308744040        1.8277536601  CLST      45              1.0000000000
       226        46  DCM       C               2.1606663886        1.2575279662       -2.3271283008  CLST      46              1.0000000000
       227        46  DCM       H1              1.2774254522        1.4573862385       -2.9693853364  CLST      46              1.0000000000
       228        46  DCM       H2              2.3645211532        2.1154693815       -1.6520796126  CLST      46              1.0000000000
       229        46  DCM       CL1             1.8333626910       -0.1968152541       -1.3415377379  CLST      46              1.0000000000
       230        46  DCM       CL2             3.5895056641        0.9819455796       -3.3677872431  CLST      46              1.0000000000
       231        47  DCM       C               0.5322645862        0.4792098445        1.5203198233  CLST      47              1.0000000000
       232        47  DCM       H1              0.0297787819       -0.4997978899        1.3727623008  CLST      47              1.0000000000
       233        47  DCM       H2             -0.0003843833        1.2862318019        0.9740879017  CLST      47              1.0000000000
       234        47  DCM       CL1             0.5510937281        0.8683145820        3.2649637708  CLST      47              1.0000000000
       235        47  DCM       CL2             2.2069919405        0.3676678825        0.9058107846  CLST      47              1.0000000000
       236        48  DCM       C               0.6865119139       -0.8503896632        0.4833018708  CLST      48              1.0000000000
       237        48  DCM       H1             -0.1093406776       -1.5227952003        0.8659286571  CLST      48              1.0000000000
       238        48  DCM       H2              1.1515950025       -1.2674630292       -0.4348311893  CLST      48              1.0000000000
       239        48  DCM       CL1            -0.0338922373        0.7415377302        0.1032997787  CLST      48              1.0000000000
       240        48  DCM       CL2             1.9401813355       -0.6654517823        1.7443155619  CLST      48              1.0000000000
       241        49  DCM       C               2.7128983741        2.1793016547       -1.4889946577  CLST      49              1.0000000000
       242        49  DCM       H1              3.7962193904        2.4034809992       -1.5850546956  CLST      49              1.0000000000
       243        49  DCM       H2              2.5333913719        1.0838800777       -1.4564556262  CLST      49              1.0000000000
       244        49  DCM       CL1             2.1027041688        2.9076127849        0.0243189378  CLST      49              1.0000000000
       245        49  DCM       CL2             1.8466593518        2.8747518501       -2.8907910848  CLST      49              1.0000000000
       246        50  DCM       C              -1.4050249702       -1.2035023245       -2.2851290453  CLST      50              1.0000000000
       247        50  DCM       H1             -1.0318242798       -0.1812157956       -2.0645118997  CLST      50              1.0000000000
       248        50  DCM       H2             -1.2953890127       -1.4422561992       -3.3642126476  CLST      50              1.0000000000
       249        50  DCM       CL1            -0.4706075255       -2.3841782987       -1.3260531483  CLST      50              1.0000000000
       250        50  DCM       CL2            -3.1308416627       -1.3047723029       -1.8370420245  CLST      50              1.0000000000
       251        51  DCM       C              -2.7684036574        2.9687454635        1.2525938782  CLST      51              1.0000000000
       252        51  DCM       H1             -3.8415863996        2.7468066779        1.0814250141  CLST      51              1.0000000000
       253        51  DCM       H2             -2.5365996717        4.0232198750        0.9933538510  CLST      51              1.0000000000
       254        51  DCM       CL1            -2.3906202186        2.6934055294        2.9764102890  CLST      51              1.0000000000
       255        51  DCM       CL2            -1.7854864825        1.8775483847        0.2345284857  CLST      51              1.0000000000
       256        52  DCM       C               1.0182285372        2.2279691168       -1.2917715872  CLST      52              1.0000000000
       257        52  DCM       H1              1.6440424142        2.4272313560       -2.1860803214  CLST      52              1.0000000000
       258        52  DCM       H2              0.2022616274        1.5147678223       -1.5269262425  CLST      52              1.0000000000
       259        52  DCM       CL1             2.0459136139        1.5212795902       -0.0131164027  CLST      52              1.0000000000
       260        52  DCM       CL2             0.3010630164        3.7647872295       -0.7319265998  CLST      52              1.0000000000
       261        53  DCM       C              -1.4653677407       -2.2680651274       -0.2641988678  CLST      53              1.0000000000
       262        53  DCM       H1             -0.5576071007       -1.9618594960       -0.8262663393  CLST      53              1.0000000000
       263        53  DCM       H2             -1.8283804372       -3.2588839889       -0.6049446425  CLST      53              1.0000000000
       264        53  DCM       CL1            -2.7617715865       -1.0667359996       -0.5272450942  CLST      53              1.0000000000
       265        53  DCM       CL2            -1.0689164325       -2.3639804613        1.4756691264  CLST      53              1.0000000000
       266        54  DCM       C               1.3810025510        1.8076803362        0.1705227541  CLST      54              1.0000000000
       267        54  DCM       H1              1.9657487300        0.9554883552       -0.2354276886  CLST      54              1.0000000000
       268        54  DCM       H2              0.4363166964        1.9500278135       -0.3955946531  CLST      54              1.0000000000
       269        54  DCM       CL1             0.9888272404        1.4816290715        1.8842929024  CLST      54              1.0000000000
       270        54  DCM       CL2             2.3647488124        3.2948633290        0.0448766231  CLST      54              1.0000000000
       271        55  DCM       C              -2.1859980969        1.4639869639       -2.4493099613  CLST      55              1.0000000000
       272        55  DCM       H1             -1.7499538443        1.9799237753       -3.3305186258  CLST      55              1.0000000000
       273        55  DCM       H2             -1.5331287051        0.6350304206       -2.1047878895  CLST      55              1.0000000000
       274        55  DCM       CL1            -2.3634190820        2.6485949377       -1.1243338440  CLST      55              1.0000000000
       275        55  DCM       CL2            -3.7823438522        0.7951124018       -2.8961272077  CLST      55              1.0000000000
       276        56  DCM       C              -0.7911690922       -1.9691799353       -0.0998839189  CLST      56              1.0000000000
       277        56  DCM       H1             -1.5896035815       -2.5961465368       -0.5474411475  CLST      56              1.0000000000
       278        56  DCM       H2             -0.9772651728       -0.8932283201       -0.2969673870  CLST      56              1.0000000000
       279        56  DCM       CL1            -0.7423992960       -2.2520815870        1.6630261382  CLST      56              1.0000000000
       280        56  DCM       CL2             0.7752744120       -2.4287968605       -0.8178489237  CLST      56              1.0000000000
       281        57  DCM       C              -0.4876972158        1.7995653963       -3.5564661882  CLST      57              1.0000000000
       282        57  DCM       H1             -0.1532336370        0.7692601208       -3.8018633240  CLST      57              1.0000000000
       283        57  DCM       H2             -1.3025578001        2.1265293347       -4.2363162732  CLST      57              1.0000000000
       284        57  DCM       CL1            -1.0868144549        1.8336896409       -1.8720386192  CLST      57              1.0000000000
       285        57  DCM       CL2             0.8974544006        2.9167637003       -3.7284546169  CLST      57              1.0000000000
       286        58  DCM       C               0.8077110904       -1.9405106110       -0.8292152108  CLST      58              1.0000000000
       287        58  DCM       H1              1.0179829653       -2.0969765495       -1.9084282797  CLST      58              1.0000000000
       288        58  DCM       H2              0.0456573205       -1.1458343450       -0.6832279078  CLST      58              1.0000000000
       289        58  DCM       CL1             0.1953566530       -3.4683618469       -0.1328280059  CLST      58              1.0000000000
       290        58  DCM       CL2             2.3177280241       -1.4601093805       -0.0014591751  CLST      58              1.0000000000
       291        59  DCM       C               0.9696756382        2.8442266003        1.2878243130  CLST      59              1.0000000000
       292        59  DCM       H1              1.9753295192        3.2980006789        1.4043951272  CLST      59              1.0000000000
       293        59  DCM       H2              0.9960978923        1.7579667898        1.5079421674  CLST      59              1.0000000000
       294        59  DCM       CL1            -0.1616327475        3.6474010024        2.4133587935  CLST      59              1.0000000000
       295        59  DCM       CL2             0.4145187709        3.0626527535       -0.3941922330  CLST      59              1.0000000000
       296        60  DCM       C              -1.0796051342        2.6051698261       -1.6152231716  CLST      60              1.0000000000
       297        60  DCM       H1             -1.8653006623        3.2711582083       -1.2031060682  CLST      60              1.0000000000
       298        60  DCM       H2             -1.0677317961        2.6381425034       -2.7246572374  CLST      60              1.0000000000
       299        60  DCM       CL1             0.5096102960        3.1370137394       -1.0051880130  CLST      60              1.0000000000
       300        60  DCM       CL2            -1.3997531043        0.9313987025       -1.0801710029  CLST      60              1.0000000000
       301        61  DCM       C               3.1319016792       -0.0967632575        2.4220117809  CLST      61              1.0000000000
       302        61  DCM       H1              3.2180716082       -0.5675384856        3.4238778785  CLST      61              1.0000000000
       303        61  DCM       H2              2.3305095206        0.6718251678        2.4105725635  CLST      61              1.0000000000
       304        61  DCM       CL1             2.7437331034       -1.3602642011        1.2191445299  CLST      61              1.0000000000
       305        61  DCM       CL2             4.6891022181        0.6776326253        2.0069830474  CLST      61              1.0000000000
       306        62  DCM       C              -0.8533266695        1.4551238100        0.8246627386  CLST      62              1.0000000000
       307        62  DCM       H1             -1.0432090773        1.6904475348        1.8924311256  CLST      62              1.0000000000
       308        62  DCM       H2              0.2346704079        1.4503203451        0.6033042298  CLST      62              1.0000000000
       309        62  DCM       CL1            -1.5326095570       -0.1578066940        0.4528916179  CLST      62              1.0000000000
       310        62  DCM       CL2            -1.6461836342        2.7012887416       -0.1816298770  CLST      62              1.0000000000
       311        63  DCM       C              -2.6841639538        0.7195737600       -2.7384240409  CLST      63              1.0000000000
       312        63  DCM       H1             -1.6424698246        1.1007813463       -2.7801504705  CLST      63              1.0000000000
       313        63  DCM       H2             -3.3725791731        1.3756477930       -3.3102615316  CLST      63              1.0000000000
       314        63  DCM       CL1            -3.2164487504        0.6656683339       -1.0335534443  CLST      63              1.0000000000
       315        63  DCM       CL2            -2.7313197795       -0.9197142475       -3.4434336103  CLST      63              1.0000000000
       316        64  DCM       C               1.9645450111       -3.1329159999        2.2900968970  CLST      64              1.0000000000
       317        64  DCM       H1              1.9620933441       -3.9476006439        1.5366329994  CLST      64              1.0000000000
       318        64  DCM       H2              0.9750702122       -3.0428700908        2.7840637917  CLST      64              1.0000000000
       319        64  DCM       CL1             3.2001534073       -3.4880241569        3.5278943690  CLST      64              1.0000000000
       320        64  DCM       CL2             2.3535764116       -1.5935112295        1.4735730817  CLST      64              1.0000000000
       321        65  DCM       C               0.9109073509       -3.0954710313       -1.8766758317  CLST      65              1.0000000000
       322        65  DCM       H1              0.9281358854       -3.9229820783       -2.6174254777  CLST      65              1.0000000000
       323        65  DCM       H2              0.6804786910       -3.4766068296       -0.8593506690  CLST      65              1.0000000000
       324        65  DCM       CL1             2.5125135125       -2.3036962979       -1.8500729187  CLST      65              1.0000000000
       325        65  DCM       CL2            -0.3397313596       -1.9097249232       -2.3517761179  CLST      65              1.0000000000
       326        66  DCM       C               0.5229831434       -2.5943939554        2.4068807325  CLST      66              1.0000000000
       327        66  DCM       H1              0.3313380191       -2.1700194964        3.4150937312  CLST      66              1.0000000000
       328        66  DCM       H2              1.4911728154       -2.2359584803        2.0001391174  CLST      66              1.0000000000
       329        66  DCM       CL1             0.5711890167       -4.3772815696        2.5253408576  CLST      66              1.0000000000
       330        66  DCM       CL2            -0.7884091056       -2.0914518034        1.3019512656  CLST      66              1.0000000000
       331        67  DCM       C               0.8531621424       -1.3495731016       -2.6476740425  CLST      67              1.0000000000
       332        67  DCM       H1              0.7919169723       -1.9195811543       -1.6963415589  CLST      67              1.0000000000
       333        67  DCM       H2             -0.0451416155       -1.5295330052       -3.2735911046  CLST      67              1.0000000000
       334        67  DCM       CL1             0.9699662396        0.3943713196       -2.2775154531  CLST      67              1.0000000000
       335        67  DCM       CL2             2.2999013870       -1.8655835517       -3.5594473063  CLST      67              1.0000000000
       336        68  DCM       C               2.8429085535       -1.5898742335       -2.4950845831  CLST      68              1.0000000000
       337        68  DCM       H1              2.8400675859       -1.2837768368       -1.4279204703  CLST      68              1.0000000000
       338        68  DCM       H2              2.4271161997       -2.6118031916       -2.6208044731  CLST      68              1.0000000000
       339        68  DCM       CL1             1.8499331951       -0.4374910917       -3.4333341885  CLST      68              1.0000000000
       340        68  DCM       CL2             4.5257579783       -1.5707562463       -3.0949734722  CLST      68              1.0000000000
       341        69  DCM       C              -0.6329258428       -1.2793995418       -3.2526949069  CLST      69              1.0000000000
       342        69  DCM       H1              0.1407210228       -2.0688332926       -3.3641400081  CLST      69              1.0000000000
       343        69  DCM       H2             -0.8958073232       -0.8357792721       -4.2355869690  CLST      69              1.0000000000
       344        69  DCM       CL1            -2.1024138033       -1.9968150555       -2.5310833962  CLST      69              1.0000000000
       345        69  DCM       CL2            -0.0012011553        0.0074281999       -2.1879267228  CLST      69              1.0000000000
       346        70  DCM       C              -2.8213471813        1.7996162958        1.5927848828  CLST      70              1.0000000000
       347        70  DCM       H1             -3.9105206306        1.8247001528        1.8087084057  CLST      70              1.0000000000
       348        70  DCM       H2             -2.2424375220        2.2646467610        2.4181690484  CLST      70              1.0000000000
       349        70  DCM       CL1            -2.3033103206        0.0992968191        1.3962330872  CLST      70              1.0000000000
       350        70  DCM       CL2            -2.5053382046        2.7061574952        0.0855204961  CLST      70              1.0000000000
       351        71  DCM       C               1.6001055196       -0.0742489185        2.9628972005  CLST      71              1.0000000000
       352        71  DCM       H1              2.1789151926        0.5090671923        3.7090635524  CLST      71              1.0000000000
       353        71  DCM       H2              0.9460834218       -0.8209728007        3.4604705422  CLST      71              1.0000000000
       354        71  DCM       CL1             0.5852874009        1.0470675723        2.0110791334  CLST      71              1.0000000000
       355        71  DCM       CL2             2.7405057732       -0.9268534063        1.8832156075  CLST      71              1.0000000000
       356        72  DCM       C               2.1040471692       -3.0279557191        1.6862249926  CLST      72              1.0000000000
       357        72  DCM       H1              3.0928998702       -3.3269470762        2.0931993843  CLST      72              1.0000000000
       358        72  DCM       H2              1.2790147666       -3.3731501060        2.3435247800  CLST      72              1.0000000000
       359        72  DCM       CL1             2.0376897520       -1.2463546961        1.5657990113  CLST      72              1.0000000000
       360        72  DCM       CL2             1.9001852150       -3.7601720417        0.0686237579  CLST      72              1.0000000000
       361        73  DCM       C              -1.4849595093        0.4472556668       -1.3391473246  CLST      73              1.0000000000
       362        73  DCM       H1             -2.3521246373        0.8107794524       -1.9282545136  CLST      73              1.0000000000
       363        73  DCM       H2             -1.0270503048       -0.4471523040       -1.8119307840  CLST      73              1.0000000000
       364        73  DCM       CL1            -0.2640751742        1.7478278106       -1.2436794549  CLST      73              1.0000000000
       365        73  DCM       CL2            -2.0430409986        0.0193736782        0.3036165219  CLST      73              1.0000000000
       366        74  DCM       C              -1.0583335279       -1.9368613511        1.8387559977  CLST      74              1.0000000000
       367        74  DCM       H1             -0.5563653253       -2.7026914861        2.4677381437  CLST      74              1.0000000000
       368        74  DCM       H2             -0.3536203426       -1.1247821311        1.5610025601  CLST      74              1.0000000000
       369        74  DCM       CL1            -2.4203662825       -1.2351721394        2.7566657167  CLST      74              1.0000000000
       370        74  DCM       CL2            -1.6710636993       -2.7106620517        0.3493413462  CLST      74              1.0000000000
       371        75  DCM       C              -2.1863979135        2.4320743419       -2.6406797966  CLST      75              1.0000000000
       372        75  DCM       H1             -1.4826175078        3.2728882451       -2.8066498084  CLST      75              1.0000000000
       373        75  DCM       H2             -2.8138008920        2.2536378550       -3.5383505429  CLST      75              1.0000000000
       374        75  DCM       CL1            -1.2552608935        0.9536529761       -2.2668969419  CLST      75              1.0000000000
       375        75  DCM       CL2            -3.2517135400        2.8362500207       -1.2683294295  CLST      75              1.0000000000
       376        76  DCM       C              -1.8316656886        1.0465885119       -2.0183022470  CLST      76              1.0000000000
       377        76  DCM       H1             -1.3754443608        1.2466627720       -3.0103889541  CLST      76              1.0000000000
       378        76  DCM       H2             -1.4399520500        0.1031563736       -1.5855705657  CLST      76              1.0000000000
       379        76  DCM       CL1            -1.4504187746        2.3967058777       -0.9117020368  CLST      76              1.0000000000
       380        76  DCM       CL2            -3.6021784982        0.9074627483       -2.2093951438  CLST      76              1.0000000000
       381        77  DCM       C               2.8107396410        0.5335793669        2.4585086171  CLST      77              1.0000000000
       382        77  DCM       H1              3.9183866789        0.5477613324        2.5309655019  CLST      77              1.0000000000
       383        77  DCM       H2              2.4505379784        1.2374834155        1.6801919789  CLST      77              1.0000000000
       384        77  DCM       CL1             2.2750674816       -1.1180840189        2.0365494463  CLST      77              1.0000000000
       385        77  DCM       CL2             2.1218863636        1.0163000562        4.0350982962  CLST      77              1.0000000000
       386        78  DCM       C              -0.9024189255        1.2670146853       -1.5038234006  CLST      78              1.0000000000
       387        78  DCM       H1             -1.9308748236        1.1522913167       -1.1009289344  CLST      78              1.0000000000
       388        78  DCM       H2             -0.2095399405        0.5363504757       -1.0353401693  CLST      78              1.0000000000
       389        78  DCM       CL1            -0.9335143193        0.9907271822       -3.2693499867  CLST      78              1.0000000000
       390        78  DCM       CL2            -0.3204154423        2.9206864910       -1.1597693492  CLST      78              1.0000000000
       391        79  DCM       C               3.4451939768        2.1555984770        0.7933795774  CLST      79              1.0000000000
       392        79  DCM       H1              4.0496762787        1.8302593815       -0.0791627877  CLST      79              1.0000000000
       393        79  DCM       H2              3.3512128206        3.2616235266        0.8224248331  CLST      79              1.0000000000
       394        79  DCM       CL1             1.8133678896        1.4376820173        0.6701345436  CLST      79              1.0000000000
       395        79  DCM       CL2             4.2398609905        1.5992351392        2.2951540866  CLST      79              1.0000000000
       396        80  DCM       C               0.9084763125        0.5028877886        1.2676221350  CLST      80              1.0000000000
       397        80  DCM       H1              0.1092444781        0.6658856685        2.0210937466  CLST      80              1.0000000000
       398        80  DCM       H2              1.6758549594       -0.2045364527        1.6474860717  CLST      80              1.0000000000
       399        80  DCM       CL1             0.1763110344       -0.1716140017       -0.2170089407  CLST      80              1.0000000000
       400        80  DCM       CL2             1.6913886840        2.0680374099        0.9015396478  CLST      80              1.0000000000
       401        81  DCM       C               1.9212442997       -1.7943000813        2.3657307686  CLST      81              1.0000000000
       402        81  DCM       H1              2.2616948104       -2.2479770415        1.4108271986  CLST      81              1.0000000000
       403        81  DCM       H2              2.0208043039       -0.6884413815        2.3405300220  CLST      81              1.0000000000
       404        81  DCM       CL1             0.2044175145       -2.2169008698        2.6335101013  CLST      81              1.0000000000
       405        81  DCM       CL2             2.9206133747       -2.4351311633        3.7022518807  CLST      81              1.0000000000
       406        82  DCM       C              -3.0332140964       -2.0381450201       -1.4991887194  CLST      82              1.0000000000
       407        82  DCM       H1             -3.7105782437       -1.9434840988       -0.6241266680  CLST      82              1.0000000000
       408        82  DCM       H2             -3.5758282199       -1.8329963564       -2.4461416469  CLST      82              1.0000000000
       409        82  DCM       CL1            -1.6940652135       -0.8659143220       -1.3289466325  CLST      82              1.0000000000
       410        82  DCM       CL2            -2.3808133864       -3.7016877214       -1.5511158893  CLST      82              1.0000000000
       411        83  DCM       C              -2.5050914441       -0.1507054217        2.6176090081  CLST      83              1.0000000000
       412        83  DCM       H1             -2.2141691785        0.0099782760        3.6769560972  CLST      83              1.0000000000
       413        83  DCM       H2             -3.1060292002       -1.0775202435        2.5040568963  CLST      83              1.0000000000
       414        83  DCM       CL1            -1.0258836513       -0.2903852456        1.6247961834  CLST      83              1.0000000000
       415        83  DCM       CL2            -3.4741763073        1.2435498244        2.0624549610  CLST      83              1.0000000000
       416        84  DCM       C               0.6563454045        2.6472042842        2.5157772974  CLST      84              1.0000000000
       417        84  DCM       H1              1.7509564355        2.8199583341        2.4465125853  CLST      84              1.0000000000
       418        84  DCM       H2              0.3204663653        1.9118515947        1.7548724680  CLST      84              1.0000000000
       419        84  DCM       CL1             0.2682803352        2.0214007156        4.1449481860  CLST      84              1.0000000000
       420        84  DCM       CL2            -0.1921442921        4.1956886644        2.2409957643  CLST      84              1.0000000000
       421        85  DCM       C               1.1564557416       -2.9248105546       -2.6360941790  CLST      85              1.0000000000
       422        85  DCM       H1              2.1775764838       -2.6246445292       -2.9531404520  CLST      85              1.0000000000
       423        85  DCM       H2              1.1938420473       -3.7117393702       -1.8532754206  CLST      85              1.0000000000
       424        85  DCM       CL1             0.2750272441       -3.5604930167       -4.0537685081  CLST      85              1.0000000000
       425        85  DCM       CL2             0.3062128531       -1.4931253448       -1.9866180555  CLST      85              1.0000000000
       426        86  DCM       C              -2.2579816918        2.3530212388        1.3711769780  CLST      86              1.0000000000
       427        86  DCM       H1             -3.2423382147        2.2688891209        1.8784419363  CLST      86              1.0000000000
       428        86  DCM       H2             -1.5062532580        1.6854913261        1.8427555048  CLST      86              1.0000000000
       429        86  DCM       CL1            -2.4482303608        1.8928011339       -0.3461310568  CLST      86              1.0000000000
       430        86  DCM       CL2            -1.6881185217        4.0437209737        1.4881784688  CLST      86              1.0000000000
       431        87  DCM       C              -3.0962718826       -1.2495602288       -0.9254652487  CLST      87              1.0000000000
       432        87  DCM       H1             -3.4354343925       -0.4140863555       -1.5738081808  CLST      87              1.0000000000
       433        87  DCM       H2             -3.0657241915       -0.9383053270        0.1393080093  CLST      87              1.0000000000
       434        87  DCM       CL1            -4.2334601574       -2.6171283523       -1.0976177643  CLST      87              1.0000000000
       435        87  DCM       CL2            -1.4572570089       -1.7510991066       -1.4280762476  CLST      87              1.0000000000
       436        88  DCM       C               3.2202029575        0.4027252192       -0.4759099080  CLST      88              1.0000000000
       437        88  DCM       H1              2.1656246926        0.4344528309       -0.1296370610  CLST      88              1.0000000000
       438        88  DCM       H2              3.8739263969        1.0163810067        0.1793674776  CLST      88              1.0000000000
       439        88  DCM       CL1             3.3085436280        1.0391419447       -2.1430134526  CLST      88              1.0000000000
       440        88  DCM       CL2             3.7915853785       -1.2899134153       -0.4541900729  CLST      88              1.0000000000
       441        89  DCM       C               1.2088971826       -1.8577341657        0.0143374013  CLST      89              1.0000000000
       442        89  DCM       H1              1.1129056185       -2.8082289145        0.5804984381  CLST      89              1.0000000000
       443        89  DCM       H2              1.5017808701       -2.0494824460       -1.0402756473  CLST      89              1.0000000000
       444        89  DCM       CL1            -0.3614110663       -1.0114175063        0.0308581369  CLST      89              1.0000000000
       445        89  DCM       CL2             2.4554675879       -0.8394886813        0.7915321498  CLST      89              1.0000000000
       446        90  DCM       C              -1.7922963503        0.2050823929       -0.8895108379  CLST      90              1.0000000000
       447        90  DCM       H1             -1.0011449124       -0.2126393684       -0.2331269578  CLST      90              1.0000000000
       448        90  DCM       H2             -1.3466950424        0.7843405820       -1.7250835632  CLST      90              1.0000000000
       449        90  DCM       CL1            -2.7644906677       -1.1310052182       -1.5629784434  CLST      90              1.0000000000
       450        90  DCM       CL2            -2.8431447088        1.2753660414        0.0780500035  CLST      90              1.0000000000
       451        91  DCM       C              -0.8582525508        1.7467059796        1.0539663057  CLST      91              1.0000000000
       452        91  DCM       H1             -1.6682114642        2.1950742773        0.4409025206  CLST      91              1.0000000000
       453        91  DCM       H2             -0.8696693281        2.1460805101        2.0885450831  CLST      91              1.0000000000
       454        91  DCM       CL1            -1.0833197661       -0.0242034563        1.1142257189  CLST      91              1.0000000000
       455        91  DCM       CL2             0.7159400959        2.1386844583        0.3101137837  CLST      91              1.0000000000
       456        92  DCM       C               1.5811955010       -0.8398625546        1.4239602448  CLST      92              1.0000000000
       457        92  DCM       H1              0.9962028535       -1.4464821655        2.1444679964  CLST      92              1.0000000000
       458        92  DCM       H2              0.9184377382       -0.2814180973        0.7301109394  CLST      92              1.0000000000
       459        92  DCM       CL1             2.5755971390        0.3222294341        2.3419565228  CLST      92              1.0000000000
       460        92  DCM       CL2             2.6317914033       -1.9247246908        0.4719612893  CLST      92              1.0000000000
       461        93  DCM       C              -1.3203776131       -1.6064309779        1.3817436574  CLST      93              1.0000000000
       462        93  DCM       H1             -2.0464214201       -0.8868916553        1.8158413540  CLST      93              1.0000000000
       463        93  DCM       H2             -1.0729220878       -1.3414993069        0.3320873658  CLST      93              1.0000000000
       464        93  DCM       CL1             0.1766934909       -1.5823280590        2.3564170975  CLST      93              1.0000000000
       465        93  DCM       CL2            -2.0348228835       -3.2440821241        1.4130332219  CLST      93              1.0000000000
       466        94  DCM       C              -2.2790829310        1.7433257064       -0.4472093756  CLST      94              1.0000000000
       467        94  DCM       H1             -1.5577332366        0.9050973845       -0.5392089836  CLST      94              1.0000000000
       468        94  DCM       H2             -2.5342525478        1.9359769161        0.6162040121  CLST      94              1.0000000000
       469        94  DCM       CL1            -1.5465578580        3.2145171209       -1.1481193945  CLST      94              1.0000000000
       470        94  DCM       CL2            -3.7727275234        1.3286183406       -1.3363651150  CLST      94              1.0000000000
       471        95  DCM       C              -1.4253839505       -2.5681896367        0.1172359227  CLST      95              1.0000000000
       472        95  DCM       H1             -1.4342948114       -3.6681817184        0.2684004537  CLST      95              1.0000000000
       473        95  DCM       H2             -1.5964649432       -2.3095832685       -0.9492671527  CLST      95              1.0000000000
       474        95  DCM       CL1            -2.7209869134       -1.8384459204        1.1054237358  CLST      95              1.0000000000
       475        95  DCM       CL2             0.1597714808       -1.9210362411        0.6303800835  CLST      95              1.0000000000
