* CHARMM CGENFF SD/ABNR BEFORE MLPOT (MM ONLY)
*  DATE:     6/28/26      1:59:43      CREATED BY USER: boittier
*
       490  EXT
         1         1  DCM       C              -7.1297634233      -10.1360782834       -6.4012132805  CLST      1               1.0000000000
         2         1  DCM       H1             -7.5487099482       -9.4466825825       -5.6383019324  CLST      1               1.0000000000
         3         1  DCM       H2             -7.8182182629      -10.9853774076       -6.5936574464  CLST      1               1.0000000000
         4         1  DCM       CL1            -6.8836945437       -9.2331629519       -7.9221955923  CLST      1               1.0000000000
         5         1  DCM       CL2            -5.5628826095      -10.7708986729       -5.8180168486  CLST      1               1.0000000000
         6         2  DCM       C              -2.7917932733       -2.5492100619       -4.2714080733  CLST      2               1.0000000000
         7         2  DCM       H1             -3.4461562962       -1.6763425795       -4.4742600524  CLST      2               1.0000000000
         8         2  DCM       H2             -1.9705088023       -2.6110509916       -5.0169699918  CLST      2               1.0000000000
         9         2  DCM       CL1            -2.1030320391       -2.3802093479       -2.6355922127  CLST      2               1.0000000000
        10         2  DCM       CL2            -3.7687517936       -4.0376086811       -4.3566672766  CLST      2               1.0000000000
        11         3  DCM       C               6.1898151768       -7.1787161079       -2.0974552616  CLST      3               1.0000000000
        12         3  DCM       H1              5.7320233423       -7.6613098618       -2.9851234067  CLST      3               1.0000000000
        13         3  DCM       H2              5.4252720213       -6.9635283918       -1.3222414916  CLST      3               1.0000000000
        14         3  DCM       CL1             7.4214224088       -8.2812892639       -1.4183239719  CLST      3               1.0000000000
        15         3  DCM       CL2             6.9573314761       -5.6424302684       -2.5927102566  CLST      3               1.0000000000
        16         4  DCM       C              -6.9973223314       -6.5768894944        0.3727450977  CLST      4               1.0000000000
        17         4  DCM       H1             -6.4974377829       -6.1056682968       -0.4989058745  CLST      4               1.0000000000
        18         4  DCM       H2             -6.3823678689       -7.4025949551        0.7880398523  CLST      4               1.0000000000
        19         4  DCM       CL1            -7.2443316083       -5.3392800855        1.6375050418  CLST      4               1.0000000000
        20         4  DCM       CL2            -8.5765389598       -7.2310702525       -0.1492296192  CLST      4               1.0000000000
        21         5  DCM       C              -5.5144868972       10.1622862588       -7.4823128784  CLST      5               1.0000000000
        22         5  DCM       H1             -4.8649201742        9.7387342450       -6.6892005756  CLST      5               1.0000000000
        23         5  DCM       H2             -6.5797923210       10.1583466645       -7.1714399758  CLST      5               1.0000000000
        24         5  DCM       CL1            -5.0138662514       11.8470712071       -7.8087615515  CLST      5               1.0000000000
        25         5  DCM       CL2            -5.3366274367        9.1786124849       -8.9643482020  CLST      5               1.0000000000
        26         6  DCM       C               8.8088714230       -7.6385289428        3.7823127438  CLST      6               1.0000000000
        27         6  DCM       H1              8.4514676134       -6.5897093155        3.8588432080  CLST      6               1.0000000000
        28         6  DCM       H2              9.7823819967       -7.6867595317        3.2498599675  CLST      6               1.0000000000
        29         6  DCM       CL1             9.0115795743       -8.2978440112        5.4306939986  CLST      6               1.0000000000
        30         6  DCM       CL2             7.6010134104       -8.6060516247        2.8842625023  CLST      6               1.0000000000
        31         7  DCM       C               7.9510304774       -1.9961528068       -8.0062438053  CLST      7               1.0000000000
        32         7  DCM       H1              8.3591595441       -1.2474950745       -8.7186248733  CLST      7               1.0000000000
        33         7  DCM       H2              6.9833210733       -2.4032441407       -8.3673935307  CLST      7               1.0000000000
        34         7  DCM       CL1             7.6934529307       -1.2135860370       -6.4196103727  CLST      7               1.0000000000
        35         7  DCM       CL2             9.1207445477       -3.3373993418       -7.8397411490  CLST      7               1.0000000000
        36         8  DCM       C               2.2319028143       11.1524857113       -9.0452922194  CLST      8               1.0000000000
        37         8  DCM       H1              1.8450114179       10.8450260267       -8.0504361863  CLST      8               1.0000000000
        38         8  DCM       H2              1.4143874299       11.1783628976       -9.7973995046  CLST      8               1.0000000000
        39         8  DCM       CL1             2.9525737213       12.7817772287       -8.9094992010  CLST      8               1.0000000000
        40         8  DCM       CL2             3.4758383961        9.9836294884       -9.5729572952  CLST      8               1.0000000000
        41         9  DCM       C               4.6780877098       -7.5620947651        4.9724964533  CLST      9               1.0000000000
        42         9  DCM       H1              5.1822187531       -8.5452818098        4.8661761547  CLST      9               1.0000000000
        43         9  DCM       H2              3.8424849753       -7.6153583045        5.7036790654  CLST      9               1.0000000000
        44         9  DCM       CL1             5.8681195561       -6.3602613575        5.5442037346  CLST      9               1.0000000000
        45         9  DCM       CL2             4.0328095917       -7.0622394985        3.3833181053  CLST      9               1.0000000000
        46        10  DCM       C              -6.0958039355        7.7737583178       -4.3635591043  CLST      10              1.0000000000
        47        10  DCM       H1             -6.3367992901        7.1047804084       -3.5113477575  CLST      10              1.0000000000
        48        10  DCM       H2             -5.2971740776        7.3362957463       -4.9962454062  CLST      10              1.0000000000
        49        10  DCM       CL1            -7.5652201926        8.0001011342       -5.3527263136  CLST      10              1.0000000000
        50        10  DCM       CL2            -5.5367423019        9.3470650241       -3.7281040198  CLST      10              1.0000000000
        51        11  DCM       C               5.2659873739       -1.8086610117       -3.7093410136  CLST      11              1.0000000000
        52        11  DCM       H1              6.3327873742       -2.1068515597       -3.6052702467  CLST      11              1.0000000000
        53        11  DCM       H2              4.9830646713       -1.7164199199       -4.7791370695  CLST      11              1.0000000000
        54        11  DCM       CL1             5.0206448151       -0.2331927438       -2.9061547446  CLST      11              1.0000000000
        55        11  DCM       CL2             4.2365477054       -3.0467471889       -2.9382296818  CLST      11              1.0000000000
        56        12  DCM       C              -5.0834895010        4.1192083481       -4.4312854166  CLST      12              1.0000000000
        57        12  DCM       H1             -5.8770644091        4.3285672109       -3.6849224069  CLST      12              1.0000000000
        58        12  DCM       H2             -5.4060064461        4.4232967112       -5.4491390837  CLST      12              1.0000000000
        59        12  DCM       CL1            -3.6094840614        5.0247807317       -3.9869168546  CLST      12              1.0000000000
        60        12  DCM       CL2            -4.7352585810        2.3682497815       -4.4320714866  CLST      12              1.0000000000
        61        13  DCM       C              -7.4070661963        1.3577086570        5.6285554034  CLST      13              1.0000000000
        62        13  DCM       H1             -7.3975505831        1.3137422736        6.7342437781  CLST      13              1.0000000000
        63        13  DCM       H2             -7.4870279101        2.4073990614        5.2771363141  CLST      13              1.0000000000
        64        13  DCM       CL1            -5.8940818160        0.6426243770        4.9984966081  CLST      13              1.0000000000
        65        13  DCM       CL2            -8.8090774726        0.4315955435        5.0219793478  CLST      13              1.0000000000
        66        14  DCM       C              -9.9939553360        8.7282460830       -2.6273138680  CLST      14              1.0000000000
        67        14  DCM       H1            -10.1060889612        9.7435784260       -3.0631966254  CLST      14              1.0000000000
        68        14  DCM       H2             -9.9240566972        7.9578172346       -3.4235495941  CLST      14              1.0000000000
        69        14  DCM       CL1            -8.5051097410        8.6830797804       -1.6406813951  CLST      14              1.0000000000
        70        14  DCM       CL2           -11.4113269187        8.3733436310       -1.5983754701  CLST      14              1.0000000000
        71        15  DCM       C               5.7659563476        2.7014780423        9.1458430717  CLST      15              1.0000000000
        72        15  DCM       H1              5.6420937145        1.6359098993        8.8597856960  CLST      15              1.0000000000
        73        15  DCM       H2              4.8930694807        3.0599956613        9.7321752148  CLST      15              1.0000000000
        74        15  DCM       CL1             7.2455040558        2.8689725848       10.1326863123  CLST      15              1.0000000000
        75        15  DCM       CL2             5.9136031633        3.6801693867        7.6596368718  CLST      15              1.0000000000
        76        16  DCM       C              -2.2120559220       -6.7208117803       -2.3952286504  CLST      16              1.0000000000
        77        16  DCM       H1             -1.5782022983       -6.7124047045       -1.4863437875  CLST      16              1.0000000000
        78        16  DCM       H2             -2.0174156870       -5.8235196178       -3.0168866717  CLST      16              1.0000000000
        79        16  DCM       CL1            -3.9296421413       -6.7222344436       -1.9084300861  CLST      16              1.0000000000
        80        16  DCM       CL2            -1.8452670759       -8.1883780980       -3.3454525817  CLST      16              1.0000000000
        81        17  DCM       C              -3.6761708334      -12.3099459242       10.3955888797  CLST      17              1.0000000000
        82        17  DCM       H1             -3.6961079072      -11.4352467320       11.0796918909  CLST      17              1.0000000000
        83        17  DCM       H2             -4.5859266845      -12.9346355770       10.5208996991  CLST      17              1.0000000000
        84        17  DCM       CL1            -3.5980218500      -11.7265608770        8.7075825745  CLST      17              1.0000000000
        85        17  DCM       CL2            -2.2349248091      -13.3028419986       10.7621169387  CLST      17              1.0000000000
        86        18  DCM       C             -10.1076828738        4.8960135604        3.8056192520  CLST      18              1.0000000000
        87        18  DCM       H1             -9.6335095423        5.0730070481        2.8175609363  CLST      18              1.0000000000
        88        18  DCM       H2            -10.8939656527        5.6528815714        4.0108201352  CLST      18              1.0000000000
        89        18  DCM       CL1           -10.8470254074        3.2701588222        3.8135084736  CLST      18              1.0000000000
        90        18  DCM       CL2            -8.8569941888        4.9971689057        5.0753677493  CLST      18              1.0000000000
        91        19  DCM       C               9.1182968952        0.9174365819        7.2553103534  CLST      19              1.0000000000
        92        19  DCM       H1              9.0091400291        0.9884230821        8.3594083246  CLST      19              1.0000000000
        93        19  DCM       H2              9.6361997931        1.8146382795        6.8497319986  CLST      19              1.0000000000
        94        19  DCM       CL1            10.0701062592       -0.5378957407        6.8498635290  CLST      19              1.0000000000
        95        19  DCM       CL2             7.5007983957        0.8016655905        6.5151613098  CLST      19              1.0000000000
        96        20  DCM       C              -7.5367236035        5.3509526933        9.2459467934  CLST      20              1.0000000000
        97        20  DCM       H1             -7.9149065399        4.8462538219       10.1633073588  CLST      20              1.0000000000
        98        20  DCM       H2             -6.6222098982        5.9454307581        9.4721540348  CLST      20              1.0000000000
        99        20  DCM       CL1            -8.8013961385        6.4413156672        8.6166034734  CLST      20              1.0000000000
       100        20  DCM       CL2            -7.1427468357        4.1141374768        8.0215905785  CLST      20              1.0000000000
       101        21  DCM       C              -3.7229967958       -3.9010764529       -7.9523399855  CLST      21              1.0000000000
       102        21  DCM       H1             -4.3051524918       -4.5441184452       -7.2595285495  CLST      21              1.0000000000
       103        21  DCM       H2             -4.0234628442       -4.0774126811       -9.0072081872  CLST      21              1.0000000000
       104        21  DCM       CL1            -4.0173854380       -2.1904194466       -7.5358596291  CLST      21              1.0000000000
       105        21  DCM       CL2            -1.9869510320       -4.2752845213       -7.7696065049  CLST      21              1.0000000000
       106        22  DCM       C               0.5781709574       -1.3871385504        7.1777756982  CLST      22              1.0000000000
       107        22  DCM       H1              1.5091471302       -1.9200805097        6.8969813902  CLST      22              1.0000000000
       108        22  DCM       H2              0.7371110002       -0.7578215871        8.0769523752  CLST      22              1.0000000000
       109        22  DCM       CL1             0.0769771759       -0.3422930830        5.8150354219  CLST      22              1.0000000000
       110        22  DCM       CL2            -0.6966464405       -2.5907673692        7.5282455868  CLST      22              1.0000000000
       111        23  DCM       C              -8.7411573620        8.4263055630        2.0247012366  CLST      23              1.0000000000
       112        23  DCM       H1             -8.3246876059        8.1154547666        3.0054805574  CLST      23              1.0000000000
       113        23  DCM       H2             -8.2107002919        7.9197498289        1.1917028282  CLST      23              1.0000000000
       114        23  DCM       CL1            -8.5518663045       10.1929420601        1.8458022588  CLST      23              1.0000000000
       115        23  DCM       CL2           -10.4754598968        7.9992125953        1.9608402525  CLST      23              1.0000000000
       116        24  DCM       C               3.6642310823        0.6258772616        6.5940981359  CLST      24              1.0000000000
       117        24  DCM       H1              2.9990404555        0.3992832686        5.7330828271  CLST      24              1.0000000000
       118        24  DCM       H2              4.5287868724        1.2444089485        6.2775778052  CLST      24              1.0000000000
       119        24  DCM       CL1             2.7279596396        1.5188360857        7.8245622862  CLST      24              1.0000000000
       120        24  DCM       CL2             4.2655634307       -0.9085107561        7.2792396567  CLST      24              1.0000000000
       121        25  DCM       C              -4.9739116118       10.6697179303        5.2335943083  CLST      25              1.0000000000
       122        25  DCM       H1             -4.4776128433       11.0160375333        4.3026478554  CLST      25              1.0000000000
       123        25  DCM       H2             -4.4204163823        9.8246441572        5.6914757027  CLST      25              1.0000000000
       124        25  DCM       CL1            -5.0388159596       12.0208492043        6.4024152624  CLST      25              1.0000000000
       125        25  DCM       CL2            -6.6341180640       10.1360612704        4.8459598115  CLST      25              1.0000000000
       126        26  DCM       C              -3.4838918173        6.5276574481       -0.4959324314  CLST      26              1.0000000000
       127        26  DCM       H1             -2.8853794486        6.1641965692       -1.3563824248  CLST      26              1.0000000000
       128        26  DCM       H2             -3.1749342486        7.5526588839       -0.2029624849  CLST      26              1.0000000000
       129        26  DCM       CL1            -5.2125064638        6.5470869991       -0.9532436178  CLST      26              1.0000000000
       130        26  DCM       CL2            -3.2363310704        5.4323433900        0.8945489800  CLST      26              1.0000000000
       131        27  DCM       C               9.5193072258       -8.2713230684       -9.0769078284  CLST      27              1.0000000000
       132        27  DCM       H1             10.2297361241       -9.1123374713       -8.9294884312  CLST      27              1.0000000000
       133        27  DCM       H2              9.5583542715       -7.8919647177      -10.1203086087  CLST      27              1.0000000000
       134        27  DCM       CL1             7.8629440538       -8.8441303138       -8.7258312742  CLST      27              1.0000000000
       135        27  DCM       CL2             9.9508233566       -6.9451629032       -7.9588616307  CLST      27              1.0000000000
       136        28  DCM       C              -6.4231840430       -0.5377148621        8.6951737793  CLST      28              1.0000000000
       137        28  DCM       H1             -5.8501345677       -0.6212396731        7.7459850545  CLST      28              1.0000000000
       138        28  DCM       H2             -7.5157399942       -0.5913612384        8.5002943094  CLST      28              1.0000000000
       139        28  DCM       CL1            -5.9540369799       -1.8803449943        9.7734870861  CLST      28              1.0000000000
       140        28  DCM       CL2            -6.0463918362        1.0253557279        9.4714446265  CLST      28              1.0000000000
       141        29  DCM       C               6.9474264681       -5.5507397884      -10.0319473567  CLST      29              1.0000000000
       142        29  DCM       H1              6.5537776352       -6.5430118283      -10.3422927229  CLST      29              1.0000000000
       143        29  DCM       H2              7.3415329375       -5.5845230871       -8.9951743466  CLST      29              1.0000000000
       144        29  DCM       CL1             8.2665708592       -5.0703639884      -11.1350813940  CLST      29              1.0000000000
       145        29  DCM       CL2             5.6223022620       -4.3536312513      -10.1038697441  CLST      29              1.0000000000
       146        30  DCM       C              -7.5485109174       -5.9213536850       -9.9908721463  CLST      30              1.0000000000
       147        30  DCM       H1             -8.4714178554       -6.5117693837       -9.8136865225  CLST      30              1.0000000000
       148        30  DCM       H2             -7.7696977137       -4.9955370141      -10.5622253741  CLST      30              1.0000000000
       149        30  DCM       CL1            -6.8366522138       -5.4742043138       -8.4151748643  CLST      30              1.0000000000
       150        30  DCM       CL2            -6.3872656534       -6.9139845235      -10.9176795399  CLST      30              1.0000000000
       151        31  DCM       C             -11.3966203246        4.1235039358       -8.0947881257  CLST      31              1.0000000000
       152        31  DCM       H1            -10.5293078112        4.2736373202       -7.4182659391  CLST      31              1.0000000000
       153        31  DCM       H2            -12.1718337665        4.9004934157       -7.9263318046  CLST      31              1.0000000000
       154        31  DCM       CL1           -10.8332272837        4.2180773444       -9.7880905234  CLST      31              1.0000000000
       155        31  DCM       CL2           -12.1091891734        2.5133470971       -7.7839836968  CLST      31              1.0000000000
       156        32  DCM       C               5.5441554039       -1.4568187091       10.6551564525  CLST      32              1.0000000000
       157        32  DCM       H1              5.7992288518       -1.8913032146       11.6448041003  CLST      32              1.0000000000
       158        32  DCM       H2              5.1075751817       -2.2254769028        9.9823005188  CLST      32              1.0000000000
       159        32  DCM       CL1             4.3533635587       -0.1429751865       10.8857332459  CLST      32              1.0000000000
       160        32  DCM       CL2             7.0314596798       -0.8063307494        9.9063682946  CLST      32              1.0000000000
       161        33  DCM       C             -11.4381977551       11.6472892997       -0.0625580817  CLST      33              1.0000000000
       162        33  DCM       H1            -12.2150121491       11.3084216447       -0.7799523471  CLST      33              1.0000000000
       163        33  DCM       H2            -11.2134902268       10.8546247741        0.6824156194  CLST      33              1.0000000000
       164        33  DCM       CL1            -9.9463116121       12.0426423893       -0.9651366337  CLST      33              1.0000000000
       165        33  DCM       CL2           -12.0303274289       13.1022810020        0.7904750350  CLST      33              1.0000000000
       166        34  DCM       C              -5.4230698184       -9.9675387591       -2.3042035100  CLST      34              1.0000000000
       167        34  DCM       H1             -5.6866791612      -11.0182198639       -2.5497207839  CLST      34              1.0000000000
       168        34  DCM       H2             -4.5071554070       -9.6492588676       -2.8461164969  CLST      34              1.0000000000
       169        34  DCM       CL1            -6.7763561827       -8.9023755836       -2.7811416027  CLST      34              1.0000000000
       170        34  DCM       CL2            -5.1366698127       -9.8341999383       -0.5444587225  CLST      34              1.0000000000
       171        35  DCM       C              -9.7720853923        4.9202217710       -1.6948058823  CLST      35              1.0000000000
       172        35  DCM       H1             -9.9885871569        3.8328803533       -1.7315898150  CLST      35              1.0000000000
       173        35  DCM       H2            -10.6893647831        5.5153354478       -1.8845523720  CLST      35              1.0000000000
       174        35  DCM       CL1            -9.1352234259        5.3258573700       -0.0791197810  CLST      35              1.0000000000
       175        35  DCM       CL2            -8.5518537671        5.3075141731       -2.9392198486  CLST      35              1.0000000000
       176        36  DCM       C              -7.8348841168       10.0718159895        8.3275810740  CLST      36              1.0000000000
       177        36  DCM       H1             -7.7907834181        9.2701339036        7.5615313681  CLST      36              1.0000000000
       178        36  DCM       H2             -7.5365683130       11.0506763206        7.8964765204  CLST      36              1.0000000000
       179        36  DCM       CL1            -9.5077470415       10.1919640175        8.9461741213  CLST      36              1.0000000000
       180        36  DCM       CL2            -6.7219960085        9.6534426723        9.6623436884  CLST      36              1.0000000000
       181        37  DCM       C              -3.5487334842       -7.5029353845       -6.3316856285  CLST      37              1.0000000000
       182        37  DCM       H1             -3.2197917657       -8.5175341918       -6.0214600567  CLST      37              1.0000000000
       183        37  DCM       H2             -2.7914798296       -6.7372512056       -6.0569253417  CLST      37              1.0000000000
       184        37  DCM       CL1            -3.7735915206       -7.4907902008       -8.1040784980  CLST      37              1.0000000000
       185        37  DCM       CL2            -5.0914651064       -7.1169067197       -5.5167365567  CLST      37              1.0000000000
       186        38  DCM       C              -2.5059062448        7.0076988384       -7.1546934541  CLST      38              1.0000000000
       187        38  DCM       H1             -2.2523701348        7.5578717989       -8.0845360053  CLST      38              1.0000000000
       188        38  DCM       H2             -1.7593132628        6.2128153456       -6.9474469901  CLST      38              1.0000000000
       189        38  DCM       CL1            -2.5342859341        8.1515647353       -5.7823908422  CLST      38              1.0000000000
       190        38  DCM       CL2            -4.1118840494        6.2569681536       -7.3516793676  CLST      38              1.0000000000
       191        39  DCM       C               3.1965702829       -3.5332944687       -7.2517276368  CLST      39              1.0000000000
       192        39  DCM       H1              3.5665976279       -4.3275065016       -7.9340629803  CLST      39              1.0000000000
       193        39  DCM       H2              3.3438058822       -3.8210820464       -6.1897028815  CLST      39              1.0000000000
       194        39  DCM       CL1             4.0979760913       -2.0255495089       -7.5777430129  CLST      39              1.0000000000
       195        39  DCM       CL2             1.4561405524       -3.2742556640       -7.5533845322  CLST      39              1.0000000000
       196        40  DCM       C              -3.0611551338        4.2826555086        7.2808139388  CLST      40              1.0000000000
       197        40  DCM       H1             -3.1523658062        5.3723342685        7.0997953580  CLST      40              1.0000000000
       198        40  DCM       H2             -1.9992985676        3.9563240427        7.2475771387  CLST      40              1.0000000000
       199        40  DCM       CL1            -3.7359064121        3.9033462723        8.8913297955  CLST      40              1.0000000000
       200        40  DCM       CL2            -3.9730955078        3.4088959392        6.0172634821  CLST      40              1.0000000000
       201        41  DCM       C             -11.3164047109        8.4299908932        6.3685825779  CLST      41              1.0000000000
       202        41  DCM       H1            -11.2563073530        7.8731987652        7.3269726153  CLST      41              1.0000000000
       203        41  DCM       H2            -11.5950272795        9.4912490626        6.5387600421  CLST      41              1.0000000000
       204        41  DCM       CL1            -9.7217544441        8.3734479864        5.5643809146  CLST      41              1.0000000000
       205        41  DCM       CL2           -12.5474999395        7.6639783327        5.3234378851  CLST      41              1.0000000000
       206        42  DCM       C               8.9067723726       11.9617012496       -6.0742203042  CLST      42              1.0000000000
       207        42  DCM       H1              9.9887389774       11.7150751167       -6.0994422559  CLST      42              1.0000000000
       208        42  DCM       H2              8.2925431367       11.0982958793       -6.4063888507  CLST      42              1.0000000000
       209        42  DCM       CL1             8.4554957380       12.3928342049       -4.3997762877  CLST      42              1.0000000000
       210        42  DCM       CL2             8.6001379085       13.3485002233       -7.1604633709  CLST      42              1.0000000000
       211        43  DCM       C              11.6305654003       12.1811938484       -9.1047945544  CLST      43              1.0000000000
       212        43  DCM       H1             12.4178205549       12.0382306608       -9.8751828652  CLST      43              1.0000000000
       213        43  DCM       H2             10.8452675483       12.8806683613       -9.4612517394  CLST      43              1.0000000000
       214        43  DCM       CL1            10.8795418408       10.6003387843       -8.7415611435  CLST      43              1.0000000000
       215        43  DCM       CL2            12.3761084684       12.8523550491       -7.6253352576  CLST      43              1.0000000000
       216        44  DCM       C               4.6206446524        2.6426767918        3.6088662022  CLST      44              1.0000000000
       217        44  DCM       H1              5.4290761683        2.0962665169        4.1408898793  CLST      44              1.0000000000
       218        44  DCM       H2              5.0187791901        3.1588603349        2.7089436737  CLST      44              1.0000000000
       219        44  DCM       CL1             3.3674576911        1.4763061826        3.1035128544  CLST      44              1.0000000000
       220        44  DCM       CL2             3.9050331508        3.8526881465        4.7123374767  CLST      44              1.0000000000
       221        45  DCM       C              -7.3369102763        5.0864661242       -9.9041341937  CLST      45              1.0000000000
       222        45  DCM       H1             -7.3656944612        3.9854117897       -9.7609750862  CLST      45              1.0000000000
       223        45  DCM       H2             -8.1181604162        5.4166256727      -10.6198081865  CLST      45              1.0000000000
       224        45  DCM       CL1            -7.6200237818        5.8834440546       -8.3291639733  CLST      45              1.0000000000
       225        45  DCM       CL2            -5.7326112373        5.5524020703      -10.5422379437  CLST      45              1.0000000000
       226        46  DCM       C               6.9221161214       -5.4144400575        1.1523396064  CLST      46              1.0000000000
       227        46  DCM       H1              6.4458958709       -4.8356351858        0.3321057980  CLST      46              1.0000000000
       228        46  DCM       H2              6.3766981672       -6.3635915775        1.3357365523  CLST      46              1.0000000000
       229        46  DCM       CL1             8.6103324537       -5.7820877496        0.6978414537  CLST      46              1.0000000000
       230        46  DCM       CL2             6.9042565232       -4.4321639538        2.6431823992  CLST      46              1.0000000000
       231        47  DCM       C              -7.4141681051       -1.3413598853        2.2374660075  CLST      47              1.0000000000
       232        47  DCM       H1             -7.2783309692       -0.2534572082        2.4176351885  CLST      47              1.0000000000
       233        47  DCM       H2             -8.3014289403       -1.7274247375        2.7840835822  CLST      47              1.0000000000
       234        47  DCM       CL1            -7.6419050375       -1.6170902716        0.4874733462  CLST      47              1.0000000000
       235        47  DCM       CL2            -5.9595480141       -2.2077110369        2.8056299951  CLST      47              1.0000000000
       236        48  DCM       C              -3.5568748332       -4.2916756697        0.9112413890  CLST      48              1.0000000000
       237        48  DCM       H1             -3.5706638071       -3.6484184921        1.8159373826  CLST      48              1.0000000000
       238        48  DCM       H2             -3.9185136601       -5.3167110820        1.1431613863  CLST      48              1.0000000000
       239        48  DCM       CL1            -4.6162006391       -3.5688027364       -0.3335315092  CLST      48              1.0000000000
       240        48  DCM       CL2            -1.8822560893       -4.3892744721        0.2993038072  CLST      48              1.0000000000
       241        49  DCM       C              -5.6340989563        6.6775100698        5.4704568257  CLST      49              1.0000000000
       242        49  DCM       H1             -6.4428801113        7.2054063540        4.9223919628  CLST      49              1.0000000000
       243        49  DCM       H2             -5.8673529817        5.5963125262        5.5714834850  CLST      49              1.0000000000
       244        49  DCM       CL1            -4.0972848410        6.8667867873        4.5788144773  CLST      49              1.0000000000
       245        49  DCM       CL2            -5.4741981593        7.3891547151        7.0980155001  CLST      49              1.0000000000
       246        50  DCM       C              -9.2052521942       -9.6704290289      -10.8350603034  CLST      50              1.0000000000
       247        50  DCM       H1             -8.2531303014       -9.2234813347      -10.4768500931  CLST      50              1.0000000000
       248        50  DCM       H2             -9.0364749805      -10.2856406538      -11.7385491315  CLST      50              1.0000000000
       249        50  DCM       CL1            -9.8829974764      -10.7001224950       -9.5366637847  CLST      50              1.0000000000
       250        50  DCM       CL2           -10.3510561170       -8.3553980446      -11.2329123812  CLST      50              1.0000000000
       251        51  DCM       C             -10.6032743522       12.3618287703        4.1033569486  CLST      51              1.0000000000
       252        51  DCM       H1             -9.9019105958       12.4568683559        3.2476211636  CLST      51              1.0000000000
       253        51  DCM       H2            -11.1942555394       13.2922130337        4.2386236550  CLST      51              1.0000000000
       254        51  DCM       CL1           -11.7230933799       11.0045780817        3.7887362446  CLST      51              1.0000000000
       255        51  DCM       CL2            -9.6669927913       12.0434638881        5.5926023445  CLST      51              1.0000000000
       256        52  DCM       C               0.4700927184       -7.4619488327        0.5693278627  CLST      52              1.0000000000
       257        52  DCM       H1              0.4737931558       -6.3780363115        0.3188891463  CLST      52              1.0000000000
       258        52  DCM       H2              1.2209315506       -7.6904697490        1.3542130990  CLST      52              1.0000000000
       259        52  DCM       CL1             0.8618246466       -8.3961500412       -0.9007300987  CLST      52              1.0000000000
       260        52  DCM       CL2            -1.1551987940       -7.9151309101        1.1605135770  CLST      52              1.0000000000
       261        53  DCM       C               2.9709267627       -3.5733480476        0.4812147173  CLST      53              1.0000000000
       262        53  DCM       H1              2.5861012606       -3.1464308239       -0.4672036321  CLST      53              1.0000000000
       263        53  DCM       H2              2.2159720408       -3.4864740058        1.2908864710  CLST      53              1.0000000000
       264        53  DCM       CL1             3.3739559285       -5.2958094808        0.2246222336  CLST      53              1.0000000000
       265        53  DCM       CL2             4.4392788695       -2.6728825311        0.9496586348  CLST      53              1.0000000000
       266        54  DCM       C              -8.9303193316       -2.2174125617       -8.9679758271  CLST      54              1.0000000000
       267        54  DCM       H1             -8.4471377839       -2.4163144000       -9.9476198349  CLST      54              1.0000000000
       268        54  DCM       H2             -9.5667979100       -1.3083306411       -9.0137403238  CLST      54              1.0000000000
       269        54  DCM       CL1            -7.6592082203       -1.9724372868       -7.7365354034  CLST      54              1.0000000000
       270        54  DCM       CL2            -9.9469499346       -3.6193561044       -8.5194599077  CLST      54              1.0000000000
       271        55  DCM       C               8.6448189998        6.0264256096        8.4031240125  CLST      55              1.0000000000
       272        55  DCM       H1              9.3484999305        6.7573790404        8.8516708793  CLST      55              1.0000000000
       273        55  DCM       H2              7.9495221919        5.6188029913        9.1673473189  CLST      55              1.0000000000
       274        55  DCM       CL1             7.6919446183        6.8440972208        7.1297476897  CLST      55              1.0000000000
       275        55  DCM       CL2             9.5728918482        4.6732094190        7.6912107914  CLST      55              1.0000000000
       276        56  DCM       C             -11.5755681612        2.1205280990       -4.1717845546  CLST      56              1.0000000000
       277        56  DCM       H1            -10.5577815148        1.8046386894       -4.4812649297  CLST      56              1.0000000000
       278        56  DCM       H2            -12.3523225724        1.6059520946       -4.7762692990  CLST      56              1.0000000000
       279        56  DCM       CL1           -11.8117906220        1.7072135792       -2.4489520520  CLST      56              1.0000000000
       280        56  DCM       CL2           -11.7325925845        3.8864685795       -4.4024361673  CLST      56              1.0000000000
       281        57  DCM       C              -2.3226604354        0.4921822441        9.0161682320  CLST      57              1.0000000000
       282        57  DCM       H1             -3.0723710909        0.9653217984        9.6852026601  CLST      57              1.0000000000
       283        57  DCM       H2             -1.9925118245       -0.4893134978        9.4186806315  CLST      57              1.0000000000
       284        57  DCM       CL1            -3.0581010034        0.2376540179        7.4074966024  CLST      57              1.0000000000
       285        57  DCM       CL2            -0.9065357260        1.5740370266        8.8748345962  CLST      57              1.0000000000
       286        58  DCM       C              11.5365522783       -3.0431169530        4.0335704808  CLST      58              1.0000000000
       287        58  DCM       H1             11.2289217056       -3.0548724548        5.1023774228  CLST      58              1.0000000000
       288        58  DCM       H2             12.6396233749       -3.1238901349        3.9357706896  CLST      58              1.0000000000
       289        58  DCM       CL1            10.9979803695       -1.5098141902        3.2933612697  CLST      58              1.0000000000
       290        58  DCM       CL2            10.7738117790       -4.4214449681        3.1902164418  CLST      58              1.0000000000
       291        59  DCM       C               2.7055291402       -7.8857965678       -3.8602865822  CLST      59              1.0000000000
       292        59  DCM       H1              3.0169363221       -8.2084175707       -2.8437027945  CLST      59              1.0000000000
       293        59  DCM       H2              1.5981599233       -7.8046014218       -3.9317336863  CLST      59              1.0000000000
       294        59  DCM       CL1             3.2840843807       -9.0850046045       -5.0491168604  CLST      59              1.0000000000
       295        59  DCM       CL2             3.4335964186       -6.2951474790       -4.2065451626  CLST      59              1.0000000000
       296        60  DCM       C               6.3962352479       -6.3381620151       -6.2226607993  CLST      60              1.0000000000
       297        60  DCM       H1              7.3900864189       -6.5763210626       -6.6559091889  CLST      60              1.0000000000
       298        60  DCM       H2              6.2541487427       -6.8475561141       -5.2477737075  CLST      60              1.0000000000
       299        60  DCM       CL1             5.1207866956       -6.8813311332       -7.3467436557  CLST      60              1.0000000000
       300        60  DCM       CL2             6.2757929725       -4.5750058638       -5.9741659035  CLST      60              1.0000000000
       301        61  DCM       C              -4.6158785972        1.1957946913       -8.1721513743  CLST      61              1.0000000000
       302        61  DCM       H1             -3.5155671741        1.1533221323       -8.3120072572  CLST      61              1.0000000000
       303        61  DCM       H2             -4.9191824704        0.6502884625       -7.2541160877  CLST      61              1.0000000000
       304        61  DCM       CL1            -5.1215001143        2.9019691709       -8.0274071900  CLST      61              1.0000000000
       305        61  DCM       CL2            -5.4142795831        0.4532431084       -9.5885598755  CLST      61              1.0000000000
       306        62  DCM       C              -5.3469953372       10.0230234566        0.2985012557  CLST      62              1.0000000000
       307        62  DCM       H1             -5.8446411839       10.9684475443        0.5998574200  CLST      62              1.0000000000
       308        62  DCM       H2             -5.9853840115        9.4410320508       -0.3982698949  CLST      62              1.0000000000
       309        62  DCM       CL1            -3.8049001177       10.4106585955       -0.5179346043  CLST      62              1.0000000000
       310        62  DCM       CL2            -5.0319399321        9.0382653466        1.7574837072  CLST      62              1.0000000000
       311        63  DCM       C               4.9665739015       12.6707019089       -5.7178918632  CLST      63              1.0000000000
       312        63  DCM       H1              5.8496496102       13.3040366222       -5.9532532324  CLST      63              1.0000000000
       313        63  DCM       H2              4.0355902366       13.1211000135       -6.1178125664  CLST      63              1.0000000000
       314        63  DCM       CL1             5.1963896954       11.0549142734       -6.4475296902  CLST      63              1.0000000000
       315        63  DCM       CL2             4.8214162692       12.5174352186       -3.9431769737  CLST      63              1.0000000000
       316        64  DCM       C               1.6413615760       -7.2634797059       -7.7844722620  CLST      64              1.0000000000
       317        64  DCM       H1              1.9235762846       -6.5654734265       -6.9674750471  CLST      64              1.0000000000
       318        64  DCM       H2              2.2567966625       -8.1887181038       -7.7458621640  CLST      64              1.0000000000
       319        64  DCM       CL1             1.9159862768       -6.4550726081       -9.3552541602  CLST      64              1.0000000000
       320        64  DCM       CL2            -0.0801106089       -7.7042320091       -7.6152704137  CLST      64              1.0000000000
       321        65  DCM       C              -0.4650839188       -3.9647361327        4.1229894707  CLST      65              1.0000000000
       322        65  DCM       H1             -1.4071782124       -4.4314765605        4.4805146814  CLST      65              1.0000000000
       323        65  DCM       H2              0.1696952673       -3.6421478645        4.9759557492  CLST      65              1.0000000000
       324        65  DCM       CL1             0.4404335818       -5.1529939099        3.1452223410  CLST      65              1.0000000000
       325        65  DCM       CL2            -0.8568837541       -2.5352570506        3.1283757545  CLST      65              1.0000000000
       326        66  DCM       C              -1.1401948112        2.1155669104       -5.4721844625  CLST      66              1.0000000000
       327        66  DCM       H1             -1.3983019632        2.5117961002       -4.4674272429  CLST      66              1.0000000000
       328        66  DCM       H2             -0.0413297026        2.0334904832       -5.6007866933  CLST      66              1.0000000000
       329        66  DCM       CL1            -1.8648615529        0.4947429745       -5.6698388416  CLST      66              1.0000000000
       330        66  DCM       CL2            -1.7865110760        3.2221175752       -6.7156968700  CLST      66              1.0000000000
       331        67  DCM       C               8.7779274519       -9.0797547428       -4.8035988134  CLST      67              1.0000000000
       332        67  DCM       H1              8.8555465624       -8.0309035375       -5.1544139153  CLST      67              1.0000000000
       333        67  DCM       H2              9.0967865874       -9.1727515059       -3.7438829014  CLST      67              1.0000000000
       334        67  DCM       CL1             7.0805063463       -9.6251488604       -4.9494436367  CLST      67              1.0000000000
       335        67  DCM       CL2             9.8323815980      -10.1093433120       -5.8158409481  CLST      67              1.0000000000
       336        68  DCM       C              -6.1602927924       -1.3793974001       -2.9506423662  CLST      68              1.0000000000
       337        68  DCM       H1             -5.8135778536       -2.4324340595       -2.8948852455  CLST      68              1.0000000000
       338        68  DCM       H2             -7.1707435486       -1.2695139588       -2.5041346364  CLST      68              1.0000000000
       339        68  DCM       CL1            -5.0134267357       -0.3528093286       -2.0521258654  CLST      68              1.0000000000
       340        68  DCM       CL2            -6.2164751295       -0.8731334564       -4.6620296900  CLST      68              1.0000000000
       341        69  DCM       C               0.7635277634       -4.0513112060       -3.9887877151  CLST      69              1.0000000000
       342        69  DCM       H1              1.8083800235       -3.9200425930       -4.3385160962  CLST      69              1.0000000000
       343        69  DCM       H2              0.2008675317       -3.1004400803       -4.0891617983  CLST      69              1.0000000000
       344        69  DCM       CL1             0.7737178917       -4.5584706382       -2.2766023218  CLST      69              1.0000000000
       345        69  DCM       CL2            -0.0305411185       -5.3043175062       -4.9793510543  CLST      69              1.0000000000
       346        70  DCM       C               6.8149619946       12.1587307078      -10.1611153252  CLST      70              1.0000000000
       347        70  DCM       H1              6.5249627231       12.8299383210       -9.3304477156  CLST      70              1.0000000000
       348        70  DCM       H2              5.9953760728       12.0495359802      -10.8992823687  CLST      70              1.0000000000
       349        70  DCM       CL1             8.2556743544       12.8425398704      -10.9744623482  CLST      70              1.0000000000
       350        70  DCM       CL2             7.2197259354       10.5527794874       -9.4827481800  CLST      70              1.0000000000
       351        71  DCM       C              -9.2949929085       -6.8115551308       -6.1621246150  CLST      71              1.0000000000
       352        71  DCM       H1             -8.2002076990       -6.9527299605       -6.2827601182  CLST      71              1.0000000000
       353        71  DCM       H2             -9.5601042745       -5.7333751142       -6.1500565259  CLST      71              1.0000000000
       354        71  DCM       CL1            -9.8058817324       -7.5564395561       -4.6204516245  CLST      71              1.0000000000
       355        71  DCM       CL2           -10.1394387185       -7.5944187043       -7.5274671286  CLST      71              1.0000000000
       356        72  DCM       C              -3.0695043232       -0.0965105954        1.6618551929  CLST      72              1.0000000000
       357        72  DCM       H1             -2.6621395732       -0.5517063523        0.7332693295  CLST      72              1.0000000000
       358        72  DCM       H2             -3.3048114546       -0.8773993473        2.4176609062  CLST      72              1.0000000000
       359        72  DCM       CL1            -1.8645576568        1.0280409326        2.3508064568  CLST      72              1.0000000000
       360        72  DCM       CL2            -4.5642203598        0.7949428646        1.2685655270  CLST      72              1.0000000000
       361        73  DCM       C               2.2264815357        6.8305498593       -8.0288466519  CLST      73              1.0000000000
       362        73  DCM       H1              2.5977707738        6.9752385781       -9.0650624986  CLST      73              1.0000000000
       363        73  DCM       H2              1.8984287735        5.7819833616       -7.8662269269  CLST      73              1.0000000000
       364        73  DCM       CL1             3.5385344221        7.2231470875       -6.8795684771  CLST      73              1.0000000000
       365        73  DCM       CL2             0.8389424725        7.9198736950       -7.7514366302  CLST      73              1.0000000000
       366        74  DCM       C              -6.1211691967        3.8807641166        2.6931454678  CLST      74              1.0000000000
       367        74  DCM       H1             -5.2554093842        3.5833012253        2.0626231830  CLST      74              1.0000000000
       368        74  DCM       H2             -5.8658540452        3.8220930830        3.7714065107  CLST      74              1.0000000000
       369        74  DCM       CL1            -6.5809930424        5.5586515185        2.2917368333  CLST      74              1.0000000000
       370        74  DCM       CL2            -7.4893871430        2.7836563857        2.3572495396  CLST      74              1.0000000000
       371        75  DCM       C               4.8240881804      -10.5426056826       -0.1958130612  CLST      75              1.0000000000
       372        75  DCM       H1              5.9029841373      -10.6291175323        0.0640686353  CLST      75              1.0000000000
       373        75  DCM       H2              4.2371569786      -11.3698347478        0.2527223713  CLST      75              1.0000000000
       374        75  DCM       CL1             4.2029298760       -8.9854287985        0.4215353737  CLST      75              1.0000000000
       375        75  DCM       CL2             4.6479077772      -10.6009152693       -1.9733689382  CLST      75              1.0000000000
       376        76  DCM       C              -7.4747209009        1.9995369549       -1.0340663567  CLST      76              1.0000000000
       377        76  DCM       H1             -7.1564927870        1.0373320467       -0.5834265274  CLST      76              1.0000000000
       378        76  DCM       H2             -8.3141555625        2.4466641061       -0.4609182549  CLST      76              1.0000000000
       379        76  DCM       CL1            -8.0074938008        1.7152232696       -2.7136317960  CLST      76              1.0000000000
       380        76  DCM       CL2            -6.0905073926        3.1283155019       -1.0195435322  CLST      76              1.0000000000
       381        77  DCM       C              -8.9752477212       -3.1112175006        6.1360639827  CLST      77              1.0000000000
       382        77  DCM       H1             -9.4104609638       -2.7177041005        5.1931482606  CLST      77              1.0000000000
       383        77  DCM       H2             -9.1727650950       -4.1988787600        6.2445088749  CLST      77              1.0000000000
       384        77  DCM       CL1            -7.2092231911       -2.8395893999        6.1185677070  CLST      77              1.0000000000
       385        77  DCM       CL2            -9.7090023522       -2.2454463537        7.5180934079  CLST      77              1.0000000000
       386        78  DCM       C               1.6902164077        5.0078723928       -4.3533187227  CLST      78              1.0000000000
       387        78  DCM       H1              1.6867687312        4.4647152586       -3.3852230901  CLST      78              1.0000000000
       388        78  DCM       H2              2.3727167813        5.8829209987       -4.3196022646  CLST      78              1.0000000000
       389        78  DCM       CL1             2.2312101369        3.8959495627       -5.6449625976  CLST      78              1.0000000000
       390        78  DCM       CL2             0.0340821387        5.5787605676       -4.7033862986  CLST      78              1.0000000000
       391        79  DCM       C              -3.2438266025      -12.9916661993       14.3640690870  CLST      79              1.0000000000
       392        79  DCM       H1             -3.2750408134      -13.1371854646       15.4645906963  CLST      79              1.0000000000
       393        79  DCM       H2             -2.4942439281      -13.6622168858       13.8925953069  CLST      79              1.0000000000
       394        79  DCM       CL1            -4.8571745632      -13.3537218418       13.6835267901  CLST      79              1.0000000000
       395        79  DCM       CL2            -2.8057599863      -11.2938246486       14.0142803419  CLST      79              1.0000000000
       396        80  DCM       C             -10.5040138101       -2.0326718842       -5.1601613428  CLST      80              1.0000000000
       397        80  DCM       H1             -9.6974385531       -2.6254061414       -5.6406517939  CLST      80              1.0000000000
       398        80  DCM       H2            -11.3402152836       -2.6870031290       -4.8351153348  CLST      80              1.0000000000
       399        80  DCM       CL1            -9.8337657409       -1.1948088213       -3.7334609068  CLST      80              1.0000000000
       400        80  DCM       CL2           -11.1225465647       -0.8297036151       -6.3284964976  CLST      80              1.0000000000
       401        81  DCM       C              -1.3746033345       11.0283789744       -7.5658280692  CLST      81              1.0000000000
       402        81  DCM       H1             -2.3203200953       11.0209894517       -6.9847097631  CLST      81              1.0000000000
       403        81  DCM       H2             -0.5697078303       10.4976049289       -7.0150194697  CLST      81              1.0000000000
       404        81  DCM       CL1            -1.6446311543       10.2139090886       -9.1334455891  CLST      81              1.0000000000
       405        81  DCM       CL2            -0.8770310805       12.7216250680       -7.8456915399  CLST      81              1.0000000000
       406        82  DCM       C              10.1774134348        9.6274627853      -12.2409897763  CLST      82              1.0000000000
       407        82  DCM       H1              9.4392723451        9.8887824300      -11.4556245793  CLST      82              1.0000000000
       408        82  DCM       H2              9.6737206045        9.2994954030      -13.1738147027  CLST      82              1.0000000000
       409        82  DCM       CL1            11.1810380312       11.0658684140      -12.5924711500  CLST      82              1.0000000000
       410        82  DCM       CL2            11.2138532609        8.2992905363      -11.6405391973  CLST      82              1.0000000000
       411        83  DCM       C              -2.3121092490        2.6938883465       -1.2727425949  CLST      83              1.0000000000
       412        83  DCM       H1             -3.2065750011        3.0216047728       -1.8418011343  CLST      83              1.0000000000
       413        83  DCM       H2             -2.5207353257        2.6734078098       -0.1818538232  CLST      83              1.0000000000
       414        83  DCM       CL1            -1.8551902921        1.0553431286       -1.8074860502  CLST      83              1.0000000000
       415        83  DCM       CL2            -0.9645951375        3.8228992064       -1.5911677689  CLST      83              1.0000000000
       416        84  DCM       C               9.2220161484       -2.3991490983       -0.1420924118  CLST      84              1.0000000000
       417        84  DCM       H1              9.1992607050       -2.7749625812        0.9028935962  CLST      84              1.0000000000
       418        84  DCM       H2              9.7911305846       -3.0863114756       -0.8006922859  CLST      84              1.0000000000
       419        84  DCM       CL1             7.5466542558       -2.2668382696       -0.7507879265  CLST      84              1.0000000000
       420        84  DCM       CL2            10.0000862491       -0.7900593110       -0.1639160165  CLST      84              1.0000000000
       421        85  DCM       C               7.5366010646       -0.6027702671        3.0373764034  CLST      85              1.0000000000
       422        85  DCM       H1              8.3123110358       -0.2808711582        3.7654334272  CLST      85              1.0000000000
       423        85  DCM       H2              7.8679353821       -1.4995648949        2.4730893711  CLST      85              1.0000000000
       424        85  DCM       CL1             7.2250707611        0.7283021297        1.8881577685  CLST      85              1.0000000000
       425        85  DCM       CL2             6.0396895792       -0.9948943998        3.9239735828  CLST      85              1.0000000000
       426        86  DCM       C               9.5344947984        3.7536895568        3.8673609090  CLST      86              1.0000000000
       427        86  DCM       H1              9.5370301243        4.1093802002        2.8151484392  CLST      86              1.0000000000
       428        86  DCM       H2             10.1753238776        4.3938503881        4.5095609351  CLST      86              1.0000000000
       429        86  DCM       CL1             7.8610229865        3.8004708344        4.4914107500  CLST      86              1.0000000000
       430        86  DCM       CL2            10.1525278443        2.0772657084        3.9139092137  CLST      86              1.0000000000
       431        87  DCM       C               2.0281884572       10.1562921228       -4.8940950660  CLST      87              1.0000000000
       432        87  DCM       H1              2.4146205825        9.7398085864       -5.8478809472  CLST      87              1.0000000000
       433        87  DCM       H2              2.8281344788       10.1941302417       -4.1243277490  CLST      87              1.0000000000
       434        87  DCM       CL1             1.4223109060       11.8109211319       -5.1885986341  CLST      87              1.0000000000
       435        87  DCM       CL2             0.6975678235        9.1225537159       -4.3012693151  CLST      87              1.0000000000
       436        88  DCM       C               3.4956932494       -3.5934355994        4.3363848831  CLST      88              1.0000000000
       437        88  DCM       H1              3.2201242406       -4.3219350927        3.5473024768  CLST      88              1.0000000000
       438        88  DCM       H2              4.5919195388       -3.4217608622        4.3443887183  CLST      88              1.0000000000
       439        88  DCM       CL1             2.6581919541       -2.0496723821        4.0094648530  CLST      88              1.0000000000
       440        88  DCM       CL2             2.9936524857       -4.2316091366        5.9282701549  CLST      88              1.0000000000
       441        89  DCM       C               2.6353945016        5.4468312827        8.4477408394  CLST      89              1.0000000000
       442        89  DCM       H1              2.1047871223        6.3097939398        7.9955557391  CLST      89              1.0000000000
       443        89  DCM       H2              3.0345118740        4.7673688087        7.6636238455  CLST      89              1.0000000000
       444        89  DCM       CL1             3.9938624991        6.0548878903        9.4394004146  CLST      89              1.0000000000
       445        89  DCM       CL2             1.4935863893        4.5360979105        9.4786741471  CLST      89              1.0000000000
       446        90  DCM       C               1.0463262940        0.0263849706        0.5945479777  CLST      90              1.0000000000
       447        90  DCM       H1              1.0977722201       -0.1014365937        1.6973328649  CLST      90              1.0000000000
       448        90  DCM       H2              0.4818718927        0.9446283296        0.3240065947  CLST      90              1.0000000000
       449        90  DCM       CL1             0.2265685658       -1.3912014284       -0.1177578465  CLST      90              1.0000000000
       450        90  DCM       CL2             2.7042138264        0.1552935477       -0.0559155811  CLST      90              1.0000000000
       451        91  DCM       C              -9.6465868517        1.6932192858       10.0809883338  CLST      91              1.0000000000
       452        91  DCM       H1            -10.4908569550        2.1911825074       10.5965798310  CLST      91              1.0000000000
       453        91  DCM       H2             -8.6856081957        2.2059915375       10.2927505377  CLST      91              1.0000000000
       454        91  DCM       CL1            -9.5382262909       -0.0007783645       10.6468909094  CLST      91              1.0000000000
       455        91  DCM       CL2            -9.9441985966        1.7227880718        8.3172340477  CLST      91              1.0000000000
       456        92  DCM       C               1.2635512936       -0.3039738915       -3.4147663097  CLST      92              1.0000000000
       457        92  DCM       H1              0.1904590381       -0.5549639137       -3.2787043734  CLST      92              1.0000000000
       458        92  DCM       H2              1.9030068751       -0.8908470820       -2.7230426270  CLST      92              1.0000000000
       459        92  DCM       CL1             1.7389879746       -0.6706417370       -5.0954582075  CLST      92              1.0000000000
       460        92  DCM       CL2             1.4967680100        1.4368629124       -3.0898030950  CLST      92              1.0000000000
       461        93  DCM       C               7.0011026146       -3.0853821738        6.8064139694  CLST      93              1.0000000000
       462        93  DCM       H1              7.1841457411       -2.0357263076        7.1174519573  CLST      93              1.0000000000
       463        93  DCM       H2              6.0673930429       -3.1689531381        6.2119332218  CLST      93              1.0000000000
       464        93  DCM       CL1             8.3734139280       -3.6420059671        5.8098940200  CLST      93              1.0000000000
       465        93  DCM       CL2             6.8523472284       -4.1075100306        8.2641527556  CLST      93              1.0000000000
       466        94  DCM       C               2.3527871632        8.7205687611       11.3290497147  CLST      94              1.0000000000
       467        94  DCM       H1              3.4433952048        8.5253796906       11.2432395133  CLST      94              1.0000000000
       468        94  DCM       H2              2.1538469899        9.6030188352       11.9740439468  CLST      94              1.0000000000
       469        94  DCM       CL1             1.6884296464        9.0304031937        9.6989449294  CLST      94              1.0000000000
       470        94  DCM       CL2             1.5602088906        7.2888101107       12.0484068889  CLST      94              1.0000000000
       471        95  DCM       C              -8.1239849917        1.6205917338       -6.4768627797  CLST      95              1.0000000000
       472        95  DCM       H1             -7.0616581069        1.3103037410       -6.4031827995  CLST      95              1.0000000000
       473        95  DCM       H2             -8.7706746061        0.9599434636       -5.8631063546  CLST      95              1.0000000000
       474        95  DCM       CL1            -8.2734205183        3.3012469603       -5.8930440240  CLST      95              1.0000000000
       475        95  DCM       CL2            -8.6387488657        1.5300133148       -8.1849929448  CLST      95              1.0000000000
       476        96  DCM       C              -1.4331307441        6.8285384459        9.5742088422  CLST      96              1.0000000000
       477        96  DCM       H1             -1.4118568013        5.7430825898        9.8135641931  CLST      96              1.0000000000
       478        96  DCM       H2             -0.7608990684        7.3976637176       10.2471716272  CLST      96              1.0000000000
       479        96  DCM       CL1            -0.8986712048        7.0689927557        7.8849923811  CLST      96              1.0000000000
       480        96  DCM       CL2            -3.1030083689        7.4338798278        9.7745305444  CLST      96              1.0000000000
       481        97  DCM       C              -7.2413698582       -5.0288653564       -3.2508295562  CLST      97              1.0000000000
       482        97  DCM       H1             -6.2032597879       -4.9478829932       -2.8642269411  CLST      97              1.0000000000
       483        97  DCM       H2             -7.5576693032       -6.0912601096       -3.3161464938  CLST      97              1.0000000000
       484        97  DCM       CL1            -8.3426235861       -4.1606929104       -2.1456195923  CLST      97              1.0000000000
       485        97  DCM       CL2            -7.3164420026       -4.2922856562       -4.8765380587  CLST      97              1.0000000000
       486        98  DCM       C              -2.2598411452        4.3340425149      -10.2038370755  CLST      98              1.0000000000
       487        98  DCM       H1             -2.6369751665        4.7486270499      -11.1624860406  CLST      98              1.0000000000
       488        98  DCM       H2             -3.0113096710        4.4548311412       -9.3957657074  CLST      98              1.0000000000
       489        98  DCM       CL1            -1.9170856700        2.5928245351      -10.4161135708  CLST      98              1.0000000000
       490        98  DCM       CL2            -0.7638458811        5.1964583314       -9.7400660419  CLST      98              1.0000000000
