* CHARMM CGENFF SD/ABNR BEFORE MLPOT (MM ONLY)
*  DATE:     6/28/26      2: 3: 1      CREATED BY USER: boittier
*
       475  EXT
         1         1  DCM       C              -4.7946085137       -5.0280878353       -4.8049890793  CLST      1               1.0000000000
         2         1  DCM       H1             -4.3924013265       -5.8343120678       -5.4546407641  CLST      1               1.0000000000
         3         1  DCM       H2             -5.8520072676       -5.2260263858       -4.5303405792  CLST      1               1.0000000000
         4         1  DCM       CL1            -3.8181979552       -4.9402051300       -3.3132212294  CLST      1               1.0000000000
         5         1  DCM       CL2            -4.6973952080       -3.4775358588       -5.6844133452  CLST      1               1.0000000000
         6         2  DCM       C              -0.9055673098       -4.5924305632       -5.6862175698  CLST      2               1.0000000000
         7         2  DCM       H1             -0.0628168513       -4.3421613604       -6.3620191473  CLST      2               1.0000000000
         8         2  DCM       H2             -1.7470043571       -3.8814233744       -5.8221795263  CLST      2               1.0000000000
         9         2  DCM       CL1            -1.4726036464       -6.2448901246       -6.0575358355  CLST      2               1.0000000000
        10         2  DCM       CL2            -0.3323008626       -4.5090740415       -3.9964468753  CLST      2               1.0000000000
        11         3  DCM       C              -9.8319100477        8.1050655401        9.6050683646  CLST      3               1.0000000000
        12         3  DCM       H1            -10.2583865730        8.9588786292        9.0371982195  CLST      3               1.0000000000
        13         3  DCM       H2            -10.1803208041        7.1363811980        9.1882681604  CLST      3               1.0000000000
        14         3  DCM       CL1            -8.0475380355        8.1746564352        9.5088149307  CLST      3               1.0000000000
        15         3  DCM       CL2           -10.3499009607        8.2224244294       11.3123633832  CLST      3               1.0000000000
        16         4  DCM       C               7.8322082165       -4.6672991632        2.4987649421  CLST      4               1.0000000000
        17         4  DCM       H1              7.9778152030       -5.5800092129        1.8832580834  CLST      4               1.0000000000
        18         4  DCM       H2              8.6580518920       -3.9417494848        2.3402085820  CLST      4               1.0000000000
        19         4  DCM       CL1             6.2846733935       -3.8973666578        2.0431475355  CLST      4               1.0000000000
        20         4  DCM       CL2             7.7921019148       -5.1370229136        4.2220995368  CLST      4               1.0000000000
        21         5  DCM       C               2.6048829746       -6.2216421515       -5.3045421236  CLST      5               1.0000000000
        22         5  DCM       H1              1.7019682472       -6.1297583025       -5.9432718869  CLST      5               1.0000000000
        23         5  DCM       H2              2.8479119273       -5.2551102373       -4.8191084841  CLST      5               1.0000000000
        24         5  DCM       CL1             2.2943500022       -7.4459207296       -4.0412039848  CLST      5               1.0000000000
        25         5  DCM       CL2             3.9844505395       -6.7294303809       -6.3200410546  CLST      5               1.0000000000
        26         6  DCM       C              -6.3769646551        2.4869908279       -6.2125592469  CLST      6               1.0000000000
        27         6  DCM       H1             -6.8557963584        2.0935243597       -7.1322891144  CLST      6               1.0000000000
        28         6  DCM       H2             -6.9756834499        2.2439024561       -5.3111681843  CLST      6               1.0000000000
        29         6  DCM       CL1            -4.7572148883        1.7546558190       -6.0520663853  CLST      6               1.0000000000
        30         6  DCM       CL2            -6.2383612398        4.2614465996       -6.3453827064  CLST      6               1.0000000000
        31         7  DCM       C              -1.1214736286       -2.8226323547        8.8900187587  CLST      7               1.0000000000
        32         7  DCM       H1             -0.2391045223       -3.2679658901        9.3941875734  CLST      7               1.0000000000
        33         7  DCM       H2             -1.4933536448       -1.9391192749        9.4487705733  CLST      7               1.0000000000
        34         7  DCM       CL1            -2.4201481003       -4.0468653030        8.7968868956  CLST      7               1.0000000000
        35         7  DCM       CL2            -0.6536256215       -2.3106166619        7.2444225314  CLST      7               1.0000000000
        36         8  DCM       C             -12.5484385576        3.6055064323       10.5228747309  CLST      8               1.0000000000
        37         8  DCM       H1            -11.4841175931        3.3074458517       10.4324584358  CLST      8               1.0000000000
        38         8  DCM       H2            -12.9834793168        3.2480951016       11.4801814501  CLST      8               1.0000000000
        39         8  DCM       CL1           -12.6535672514        5.3886657208       10.4646512938  CLST      8               1.0000000000
        40         8  DCM       CL2           -13.4625262437        2.8924965343        9.1618710460  CLST      8               1.0000000000
        41         9  DCM       C              -6.1430323579       -1.7378773294       -3.0092310564  CLST      9               1.0000000000
        42         9  DCM       H1             -5.2580908777       -2.3995936089       -2.9179691038  CLST      9               1.0000000000
        43         9  DCM       H2             -6.0557138603       -1.0674512857       -3.8911752503  CLST      9               1.0000000000
        44         9  DCM       CL1            -7.6023928827       -2.7526194584       -3.1953891852  CLST      9               1.0000000000
        45         9  DCM       CL2            -6.2666043469       -0.7419560815       -1.5304597366  CLST      9               1.0000000000
        46        10  DCM       C              -3.8624646245       -6.8570967171        1.6300787136  CLST      10              1.0000000000
        47        10  DCM       H1             -3.3284277182       -7.0337408302        0.6723795534  CLST      10              1.0000000000
        48        10  DCM       H2             -4.8273323114       -6.3344430361        1.4603190588  CLST      10              1.0000000000
        49        10  DCM       CL1            -4.1889515696       -8.4273939519        2.4171908433  CLST      10              1.0000000000
        50        10  DCM       CL2            -2.8388502110       -5.8471602192        2.6875696099  CLST      10              1.0000000000
        51        11  DCM       C               6.0516682616       -6.4004957582       -0.6575635858  CLST      11              1.0000000000
        52        11  DCM       H1              6.2924955717       -7.1103787891        0.1602670719  CLST      11              1.0000000000
        53        11  DCM       H2              5.2854538290       -5.6638898647       -0.3371139894  CLST      11              1.0000000000
        54        11  DCM       CL1             7.5419858372       -5.5297531242       -1.1226812357  CLST      11              1.0000000000
        55        11  DCM       CL2             5.4218887439       -7.3232456152       -2.0516802970  CLST      11              1.0000000000
        56        12  DCM       C               0.8574535715        1.3808568670       -1.0034538485  CLST      12              1.0000000000
        57        12  DCM       H1              1.3147920272        2.2486000918       -1.5216087540  CLST      12              1.0000000000
        58        12  DCM       H2              1.2711769842        1.2680697897        0.0199934553  CLST      12              1.0000000000
        59        12  DCM       CL1            -0.9072550161        1.6259997871       -0.8917876560  CLST      12              1.0000000000
        60        12  DCM       CL2             1.1959796302       -0.1024386526       -1.9370205745  CLST      12              1.0000000000
        61        13  DCM       C               8.4235376122        0.5502026051        7.2178174846  CLST      13              1.0000000000
        62        13  DCM       H1              9.4639435869        0.1685134788        7.2886488131  CLST      13              1.0000000000
        63        13  DCM       H2              7.7192928273       -0.1193361978        7.7543679583  CLST      13              1.0000000000
        64        13  DCM       CL1             8.3438587186        2.1772152143        7.9526562055  CLST      13              1.0000000000
        65        13  DCM       CL2             7.9476350883        0.6375680454        5.4965267886  CLST      13              1.0000000000
        66        14  DCM       C             -11.3592908449        0.9581699750        6.1251306447  CLST      14              1.0000000000
        67        14  DCM       H1            -11.5851388812        1.6242371506        6.9847966471  CLST      14              1.0000000000
        68        14  DCM       H2            -12.2773411413        0.7317051196        5.5433529526  CLST      14              1.0000000000
        69        14  DCM       CL1           -10.1820865644        1.7736695181        5.0559531256  CLST      14              1.0000000000
        70        14  DCM       CL2           -10.6631526185       -0.5719473063        6.7357765292  CLST      14              1.0000000000
        71        15  DCM       C               4.0211649159      -10.6095275927       -6.9271771722  CLST      15              1.0000000000
        72        15  DCM       H1              3.9323486742       -9.5423189542       -7.2184154813  CLST      15              1.0000000000
        73        15  DCM       H2              5.0758552669      -10.9518673205       -6.9827767076  CLST      15              1.0000000000
        74        15  DCM       CL1             3.4343893639      -10.7998787930       -5.2494296899  CLST      15              1.0000000000
        75        15  DCM       CL2             3.0254047671      -11.5983601775       -8.0361793094  CLST      15              1.0000000000
        76        16  DCM       C               8.2697239230        3.1172996561       -1.3851178550  CLST      16              1.0000000000
        77        16  DCM       H1              8.6629168510        2.6980785498       -0.4351724092  CLST      16              1.0000000000
        78        16  DCM       H2              7.2873959971        3.6076779125       -1.2265579299  CLST      16              1.0000000000
        79        16  DCM       CL1             9.4280522355        4.3205828404       -2.0214932225  CLST      16              1.0000000000
        80        16  DCM       CL2             8.0607239833        1.7959793510       -2.5662176500  CLST      16              1.0000000000
        81        17  DCM       C               3.8451258266       -9.2135805639        6.1061002851  CLST      17              1.0000000000
        82        17  DCM       H1              4.1207442054      -10.1238110062        6.6797603188  CLST      17              1.0000000000
        83        17  DCM       H2              4.7441454309       -8.7245722354        5.6748811393  CLST      17              1.0000000000
        84        17  DCM       CL1             3.0307514135       -8.0634906360        7.2010271508  CLST      17              1.0000000000
        85        17  DCM       CL2             2.7326027198       -9.6702758202        4.7839504554  CLST      17              1.0000000000
        86        18  DCM       C               8.1478412946       -7.7274035012       10.3684996469  CLST      18              1.0000000000
        87        18  DCM       H1              8.8358789007       -8.2241972143       11.0844855522  CLST      18              1.0000000000
        88        18  DCM       H2              7.4185065345       -7.0809726984       10.9009538573  CLST      18              1.0000000000
        89        18  DCM       CL1             9.1081671769       -6.7208752927        9.2462963456  CLST      18              1.0000000000
        90        18  DCM       CL2             7.2589536077       -8.9793009937        9.4519928518  CLST      18              1.0000000000
        91        19  DCM       C               1.0926370371       -1.3222053200       -5.1744550072  CLST      19              1.0000000000
        92        19  DCM       H1              1.4400030338       -0.2811174980       -5.0082381201  CLST      19              1.0000000000
        93        19  DCM       H2              0.4269567498       -1.6544888662       -4.3501253457  CLST      19              1.0000000000
        94        19  DCM       CL1             0.1976044966       -1.3999095207       -6.7163460027  CLST      19              1.0000000000
        95        19  DCM       CL2             2.5100127053       -2.4014127069       -5.2479660882  CLST      19              1.0000000000
        96        20  DCM       C               6.0950748744       -4.4988024157       -4.3600619803  CLST      20              1.0000000000
        97        20  DCM       H1              5.1280194663       -4.9663467047       -4.0805698821  CLST      20              1.0000000000
        98        20  DCM       H2              6.5062611854       -3.9092882556       -3.5157810290  CLST      20              1.0000000000
        99        20  DCM       CL1             7.2594898881       -5.7831524634       -4.7951739734  CLST      20              1.0000000000
       100        20  DCM       CL2             5.8444440006       -3.4155767981       -5.7578429619  CLST      20              1.0000000000
       101        21  DCM       C              -5.2585762459       -3.0822214692        1.4546626999  CLST      21              1.0000000000
       102        21  DCM       H1             -5.0321175778       -2.0028927380        1.5875718932  CLST      21              1.0000000000
       103        21  DCM       H2             -4.9103833650       -3.6726040336        2.3279244360  CLST      21              1.0000000000
       104        21  DCM       CL1            -7.0244492575       -3.2920736606        1.2826198190  CLST      21              1.0000000000
       105        21  DCM       CL2            -4.4347525577       -3.6759076365       -0.0149516977  CLST      21              1.0000000000
       106        22  DCM       C               5.4173653542       -0.0018745784        1.6110488216  CLST      22              1.0000000000
       107        22  DCM       H1              5.6272620998       -0.9838153411        2.0824041880  CLST      22              1.0000000000
       108        22  DCM       H2              5.4720117342        0.8213210819        2.3559382288  CLST      22              1.0000000000
       109        22  DCM       CL1             3.7786392592       -0.0392390926        0.9004620892  CLST      22              1.0000000000
       110        22  DCM       CL2             6.6268610644        0.2923349446        0.3307153665  CLST      22              1.0000000000
       111        23  DCM       C               4.7710210341        0.5728167359        9.8102242499  CLST      23              1.0000000000
       112        23  DCM       H1              5.1030087358        1.4476180537       10.4082421404  CLST      23              1.0000000000
       113        23  DCM       H2              3.7638748178        0.2292176573       10.1281944315  CLST      23              1.0000000000
       114        23  DCM       CL1             4.7091512821        1.0396938828        8.0857241160  CLST      23              1.0000000000
       115        23  DCM       CL2             5.9382893871       -0.7622629247       10.0366692710  CLST      23              1.0000000000
       116        24  DCM       C               3.3525833642       -2.8836663971       -1.5817582458  CLST      24              1.0000000000
       117        24  DCM       H1              3.1909251503       -2.2922056685       -2.5043875354  CLST      24              1.0000000000
       118        24  DCM       H2              2.7332564271       -2.4907778184       -0.7481769564  CLST      24              1.0000000000
       119        24  DCM       CL1             2.9055926864       -4.5831216254       -1.8964334178  CLST      24              1.0000000000
       120        24  DCM       CL2             5.0767228680       -2.7870805139       -1.1294055023  CLST      24              1.0000000000
       121        25  DCM       C               0.2378184039       -0.2175574910      -10.0080968940  CLST      25              1.0000000000
       122        25  DCM       H1              0.6705193928        0.2310867567       -9.0906128488  CLST      25              1.0000000000
       123        25  DCM       H2             -0.5931984416       -0.9105757248       -9.7590631542  CLST      25              1.0000000000
       124        25  DCM       CL1            -0.3791019083        1.0923882479      -11.0537853216  CLST      25              1.0000000000
       125        25  DCM       CL2             1.5123641510       -1.1267872723      -10.8664130308  CLST      25              1.0000000000
       126        26  DCM       C               5.4904226878        9.3862775795        3.0710993138  CLST      26              1.0000000000
       127        26  DCM       H1              5.1593299242       10.3790746412        3.4444549115  CLST      26              1.0000000000
       128        26  DCM       H2              6.5411871189        9.1807839571        3.3635515609  CLST      26              1.0000000000
       129        26  DCM       CL1             4.4343650051        8.1222648042        3.7663543543  CLST      26              1.0000000000
       130        26  DCM       CL2             5.3676349273        9.3669375699        1.2877492626  CLST      26              1.0000000000
       131        27  DCM       C              -5.1001328045        6.0426754113        9.1347676388  CLST      27              1.0000000000
       132        27  DCM       H1             -5.6289933877        5.6631446272       10.0347218034  CLST      27              1.0000000000
       133        27  DCM       H2             -5.3113452265        7.1200509765        8.9715614419  CLST      27              1.0000000000
       134        27  DCM       CL1            -5.6511434282        5.1259411442        7.7042501934  CLST      27              1.0000000000
       135        27  DCM       CL2            -3.3388942121        5.8247293757        9.3513549872  CLST      27              1.0000000000
       136        28  DCM       C               5.1958396538       -5.8291512186        8.8752915935  CLST      28              1.0000000000
       137        28  DCM       H1              5.2351069802       -6.7890587731        9.4289575180  CLST      28              1.0000000000
       138        28  DCM       H2              4.1452752218       -5.5332478661        8.6745404850  CLST      28              1.0000000000
       139        28  DCM       CL1             6.0592734178       -6.0284860948        7.3241942276  CLST      28              1.0000000000
       140        28  DCM       CL2             5.9856455627       -4.5568737055        9.8499829363  CLST      28              1.0000000000
       141        29  DCM       C             -10.6079267627        4.4721818843       -4.8779554965  CLST      29              1.0000000000
       142        29  DCM       H1            -10.8632603929        3.6027545514       -5.5162026293  CLST      29              1.0000000000
       143        29  DCM       H2            -10.4554968869        5.3837470173       -5.4921964923  CLST      29              1.0000000000
       144        29  DCM       CL1           -11.9449007459        4.7528226142       -3.7263680037  CLST      29              1.0000000000
       145        29  DCM       CL2            -9.1025001501        4.1205663972       -3.9857152288  CLST      29              1.0000000000
       146        30  DCM       C               9.3451474046        0.0523356036       -7.3070853999  CLST      30              1.0000000000
       147        30  DCM       H1              9.5623460771        0.8802501121       -8.0140638090  CLST      30              1.0000000000
       148        30  DCM       H2             10.0558557486       -0.7902609265       -7.4426855970  CLST      30              1.0000000000
       149        30  DCM       CL1             9.4861976977        0.6644713844       -5.6343201949  CLST      30              1.0000000000
       150        30  DCM       CL2             7.6848950627       -0.5411160944       -7.5983629725  CLST      30              1.0000000000
       151        31  DCM       C              -4.2870042705        2.7093982595       11.5007973911  CLST      31              1.0000000000
       152        31  DCM       H1             -3.4926077613        3.4503151630       11.7328029563  CLST      31              1.0000000000
       153        31  DCM       H2             -4.1055091511        1.7463958487       12.0237456586  CLST      31              1.0000000000
       154        31  DCM       CL1            -5.8647389663        3.3655909723       12.0205781234  CLST      31              1.0000000000
       155        31  DCM       CL2            -4.3093594968        2.4168620154        9.7398812687  CLST      31              1.0000000000
       156        32  DCM       C               0.2327872685        3.4722545244       -8.0320730587  CLST      32              1.0000000000
       157        32  DCM       H1              1.1140319310        3.4251070351       -7.3594008875  CLST      32              1.0000000000
       158        32  DCM       H2              0.5113061589        3.2042607602       -9.0728517016  CLST      32              1.0000000000
       159        32  DCM       CL1            -1.0090202318        2.3289437016       -7.4435319735  CLST      32              1.0000000000
       160        32  DCM       CL2            -0.4112876265        5.1380490841       -8.0156452466  CLST      32              1.0000000000
       161        33  DCM       C              -6.7664163961       -2.1938036191       -8.5083942803  CLST      33              1.0000000000
       162        33  DCM       H1             -5.7422353116       -2.6238913694       -8.4773238754  CLST      33              1.0000000000
       163        33  DCM       H2             -7.5369583256       -2.9879302163       -8.4242596207  CLST      33              1.0000000000
       164        33  DCM       CL1            -6.9630070540       -1.0445556954       -7.1520802952  CLST      33              1.0000000000
       165        33  DCM       CL2            -6.9925304737       -1.3428757427      -10.0626789003  CLST      33              1.0000000000
       166        34  DCM       C              -7.0064004423       -5.9148839516       -1.2905177533  CLST      34              1.0000000000
       167        34  DCM       H1             -7.4553202974       -5.7750382713       -0.2851913159  CLST      34              1.0000000000
       168        34  DCM       H2             -6.5017595212       -4.9881895245       -1.6334541152  CLST      34              1.0000000000
       169        34  DCM       CL1            -5.8079112898       -7.2368491323       -1.2186710626  CLST      34              1.0000000000
       170        34  DCM       CL2            -8.2994789426       -6.3366524749       -2.4462921630  CLST      34              1.0000000000
       171        35  DCM       C              -4.0462930830       -8.1972431653        7.9535158831  CLST      35              1.0000000000
       172        35  DCM       H1             -3.1032008080       -8.7814790931        8.0078972793  CLST      35              1.0000000000
       173        35  DCM       H2             -4.9284581440       -8.8681023512        7.8907327273  CLST      35              1.0000000000
       174        35  DCM       CL1            -4.1871241301       -7.1905291980        9.4233711697  CLST      35              1.0000000000
       175        35  DCM       CL2            -4.0061880977       -7.1512265166        6.5039911630  CLST      35              1.0000000000
       176        36  DCM       C              -6.5567905191       -9.5925585005       -3.7362880835  CLST      36              1.0000000000
       177        36  DCM       H1             -5.7707876639       -9.8607014577       -2.9993764287  CLST      36              1.0000000000
       178        36  DCM       H2             -7.4631703484       -9.2007873564       -3.2277181730  CLST      36              1.0000000000
       179        36  DCM       CL1            -5.9168663330       -8.3370013849       -4.8361449441  CLST      36              1.0000000000
       180        36  DCM       CL2            -7.0000841090      -11.0493452665       -4.6712544242  CLST      36              1.0000000000
       181        37  DCM       C               9.6117083336       -3.7314252642        7.3165222959  CLST      37              1.0000000000
       182        37  DCM       H1              8.6994140834       -4.3390824754        7.1348568333  CLST      37              1.0000000000
       183        37  DCM       H2             10.5007452717       -4.3820691657        7.4520133469  CLST      37              1.0000000000
       184        37  DCM       CL1             9.8844493077       -2.6514294782        5.9165971198  CLST      37              1.0000000000
       185        37  DCM       CL2             9.3721019129       -2.7574915087        8.7972244171  CLST      37              1.0000000000
       186        38  DCM       C               2.9158626656       -2.2673825347        8.0428013741  CLST      38              1.0000000000
       187        38  DCM       H1              3.9138601785       -1.7904626892        7.9747618761  CLST      38              1.0000000000
       188        38  DCM       H2              2.1179499822       -1.5516734693        7.7551842017  CLST      38              1.0000000000
       189        38  DCM       CL1             2.8653453261       -3.6698922329        6.9381559957  CLST      38              1.0000000000
       190        38  DCM       CL2             2.6527574709       -2.8068044102        9.7257864273  CLST      38              1.0000000000
       191        39  DCM       C               1.4775813432        8.1524922215       -6.8622468171  CLST      39              1.0000000000
       192        39  DCM       H1              1.6754685547        9.2256507869       -6.6558024568  CLST      39              1.0000000000
       193        39  DCM       H2              0.4653020559        8.0082294981       -7.2952897663  CLST      39              1.0000000000
       194        39  DCM       CL1             2.6939098462        7.5498531473       -8.0248926985  CLST      39              1.0000000000
       195        39  DCM       CL2             1.5893554317        7.2362398426       -5.3313628278  CLST      39              1.0000000000
       196        40  DCM       C              -9.8760790995        0.0391658184       -2.5950855004  CLST      40              1.0000000000
       197        40  DCM       H1            -10.5722098661       -0.7056982485       -3.0357795204  CLST      40              1.0000000000
       198        40  DCM       H2             -9.2821574654       -0.4082907291       -1.7705291704  CLST      40              1.0000000000
       199        40  DCM       CL1            -8.7618316469        0.6144505006       -3.8674216593  CLST      40              1.0000000000
       200        40  DCM       CL2           -10.8191542311        1.4142502044       -1.9518570835  CLST      40              1.0000000000
       201        41  DCM       C              13.4738633789      -11.6763496689      -13.8494959401  CLST      41              1.0000000000
       202        41  DCM       H1             12.5614436789      -11.3162761650      -14.3703051915  CLST      41              1.0000000000
       203        41  DCM       H2             13.2623403584      -11.9063549706      -12.7837754958  CLST      41              1.0000000000
       204        41  DCM       CL1            14.0577721422      -13.1597667973      -14.6591697483  CLST      41              1.0000000000
       205        41  DCM       CL2            14.7293389620      -10.4058640721      -13.9316076971  CLST      41              1.0000000000
       206        42  DCM       C               2.4428230572       -2.8896960088        3.1744224994  CLST      42              1.0000000000
       207        42  DCM       H1              3.2475323719       -3.2121324472        3.8637049951  CLST      42              1.0000000000
       208        42  DCM       H2              2.5959395140       -1.8435089312        2.8367692307  CLST      42              1.0000000000
       209        42  DCM       CL1             2.4373081509       -3.9693397731        1.7527642522  CLST      42              1.0000000000
       210        42  DCM       CL2             0.8828267895       -2.9966259784        4.0345038963  CLST      42              1.0000000000
       211        43  DCM       C               0.9385886920       -8.0063629991       -8.8063106532  CLST      43              1.0000000000
       212        43  DCM       H1              0.2612149622       -8.5887383918       -9.4636045492  CLST      43              1.0000000000
       213        43  DCM       H2              0.6242734263       -6.9434378108       -8.7471848805  CLST      43              1.0000000000
       214        43  DCM       CL1             2.5951181803       -8.0951180579       -9.4689862788  CLST      43              1.0000000000
       215        43  DCM       CL2             0.8983271964       -8.7230843782       -7.1714036639  CLST      43              1.0000000000
       216        44  DCM       C               6.2148420234      -10.9118181746       12.7875270360  CLST      44              1.0000000000
       217        44  DCM       H1              6.6778929559      -11.9029992548       12.9782121713  CLST      44              1.0000000000
       218        44  DCM       H2              6.0158195167      -10.7653627422       11.7050219050  CLST      44              1.0000000000
       219        44  DCM       CL1             4.6706166660      -10.8103035226       13.6831854572  CLST      44              1.0000000000
       220        44  DCM       CL2             7.3278539040       -9.6319022843       13.3517594024  CLST      44              1.0000000000
       221        45  DCM       C              -5.5374995033        7.9128130115       12.5456673642  CLST      45              1.0000000000
       222        45  DCM       H1             -5.2652387538        8.7903015222       13.1697290184  CLST      45              1.0000000000
       223        45  DCM       H2             -5.5989235070        8.1905432366       11.4727935874  CLST      45              1.0000000000
       224        45  DCM       CL1            -4.2960527402        6.6432510858       12.7522391381  CLST      45              1.0000000000
       225        45  DCM       CL2            -7.1273786380        7.2950253666       13.0746320598  CLST      45              1.0000000000
       226        46  DCM       C               5.7797382909        5.6522444865        0.9976617339  CLST      46              1.0000000000
       227        46  DCM       H1              5.7722968865        6.3731074578        1.8405331648  CLST      46              1.0000000000
       228        46  DCM       H2              4.7559861482        5.4999070039        0.5938543711  CLST      46              1.0000000000
       229        46  DCM       CL1             6.8239578419        6.2984768359       -0.3008328348  CLST      46              1.0000000000
       230        46  DCM       CL2             6.4226173875        4.0880368351        1.5805818727  CLST      46              1.0000000000
       231        47  DCM       C              -2.8507109367        6.4818585280       -4.6756118645  CLST      47              1.0000000000
       232        47  DCM       H1             -3.8763487055        6.8006815238       -4.3959432444  CLST      47              1.0000000000
       233        47  DCM       H2             -2.2076000832        6.3718666635       -3.7770535784  CLST      47              1.0000000000
       234        47  DCM       CL1            -2.9444579520        4.9135694782       -5.5247253862  CLST      47              1.0000000000
       235        47  DCM       CL2            -2.1337796005        7.7097748268       -5.7574583397  CLST      47              1.0000000000
       236        48  DCM       C              -2.2405978279      -10.4569788200       -7.8065776175  CLST      48              1.0000000000
       237        48  DCM       H1             -3.1989251709      -11.0118301696       -7.7275333288  CLST      48              1.0000000000
       238        48  DCM       H2             -1.7513065052      -10.3587588015       -6.8139577161  CLST      48              1.0000000000
       239        48  DCM       CL1            -1.1456708209      -11.3426614240       -8.9075551003  CLST      48              1.0000000000
       240        48  DCM       CL2            -2.5618050260       -8.8244512482       -8.4588476779  CLST      48              1.0000000000
       241        49  DCM       C               3.2291564440       -8.0193584464       11.5338709970  CLST      49              1.0000000000
       242        49  DCM       H1              2.6017707477       -8.4629566449       12.3358386265  CLST      49              1.0000000000
       243        49  DCM       H2              2.6657099973       -7.2519384565       10.9630750722  CLST      49              1.0000000000
       244        49  DCM       CL1             4.6658678392       -7.2554572695       12.2735371737  CLST      49              1.0000000000
       245        49  DCM       CL2             3.7396748856       -9.3158539700       10.4150720755  CLST      49              1.0000000000
       246        50  DCM       C               4.2785037182       -6.9492408256        2.8185808426  CLST      50              1.0000000000
       247        50  DCM       H1              4.3465744593       -6.2703341248        1.9433759442  CLST      50              1.0000000000
       248        50  DCM       H2              3.3800823365       -7.5979813442        2.7475847938  CLST      50              1.0000000000
       249        50  DCM       CL1             5.7395060952       -7.9761393939        2.8792009254  CLST      50              1.0000000000
       250        50  DCM       CL2             4.1735148695       -5.9674802632        4.3068900377  CLST      50              1.0000000000
       251        51  DCM       C              -8.5757566497       -0.9108066767       11.4099747507  CLST      51              1.0000000000
       252        51  DCM       H1             -8.9149953937       -1.7249207336       12.0843571635  CLST      51              1.0000000000
       253        51  DCM       H2             -9.3710227148       -0.1478409748       11.2769155149  CLST      51              1.0000000000
       254        51  DCM       CL1            -8.1684968983       -1.6070087251        9.8144187863  CLST      51              1.0000000000
       255        51  DCM       CL2            -7.1347841020       -0.1246735456       12.1174729155  CLST      51              1.0000000000
       256        52  DCM       C               9.9318286606        3.4988050338        4.8721637383  CLST      52              1.0000000000
       257        52  DCM       H1             10.2625281623        2.5703804471        5.3842862680  CLST      52              1.0000000000
       258        52  DCM       H2              8.9652241645        3.8580259053        5.2847703274  CLST      52              1.0000000000
       259        52  DCM       CL1            11.1748928468        4.7607086107        5.1106050449  CLST      52              1.0000000000
       260        52  DCM       CL2             9.7308554305        3.1603076611        3.1273271265  CLST      52              1.0000000000
       261        53  DCM       C              -7.3919548982       -7.2487359053        3.8422816673  CLST      53              1.0000000000
       262        53  DCM       H1             -6.8096743223       -8.1304600521        4.1841839634  CLST      53              1.0000000000
       263        53  DCM       H2             -8.3397598091       -7.1478325176        4.4126777809  CLST      53              1.0000000000
       264        53  DCM       CL1            -6.4094396505       -5.7766502019        4.0830285883  CLST      53              1.0000000000
       265        53  DCM       CL2            -7.7738874664       -7.4404086802        2.1068378577  CLST      53              1.0000000000
       266        54  DCM       C              -2.2833205157        9.2350000867       10.7414106519  CLST      54              1.0000000000
       267        54  DCM       H1             -2.1953560366        8.1402321931       10.9026806540  CLST      54              1.0000000000
       268        54  DCM       H2             -1.3630322420        9.6445295826       10.2723475939  CLST      54              1.0000000000
       269        54  DCM       CL1            -3.6761852935        9.5588551444        9.6679920050  CLST      54              1.0000000000
       270        54  DCM       CL2            -2.5371221606       10.0353483018       12.3195654059  CLST      54              1.0000000000
       271        55  DCM       C              -7.6137373785        2.0027350153        8.8693328071  CLST      55              1.0000000000
       272        55  DCM       H1             -7.1183549494        1.2599410553        9.5279154770  CLST      55              1.0000000000
       273        55  DCM       H2             -7.3019709916        3.0345001878        9.1345838301  CLST      55              1.0000000000
       274        55  DCM       CL1            -7.1552792851        1.6726715598        7.1747380590  CLST      55              1.0000000000
       275        55  DCM       CL2            -9.3830462452        1.8594791373        9.0565681984  CLST      55              1.0000000000
       276        56  DCM       C              -3.5955090067       -0.0161629912       -9.1763223866  CLST      56              1.0000000000
       277        56  DCM       H1             -4.6456517420        0.3309665601       -9.0855995619  CLST      56              1.0000000000
       278        56  DCM       H2             -2.8997575382        0.8425907665       -9.2850741683  CLST      56              1.0000000000
       279        56  DCM       CL1            -3.1635163971       -0.9364385761       -7.7086660865  CLST      56              1.0000000000
       280        56  DCM       CL2            -3.4515205271       -1.0694134639      -10.6126122061  CLST      56              1.0000000000
       281        57  DCM       C              -0.8430012281        1.2966954465        9.2895681115  CLST      57              1.0000000000
       282        57  DCM       H1             -1.6771224469        0.7194086335        9.7417535652  CLST      57              1.0000000000
       283        57  DCM       H2             -1.0152561076        1.4593087205        8.2043131743  CLST      57              1.0000000000
       284        57  DCM       CL1            -0.7256541847        2.8830555694       10.1060311049  CLST      57              1.0000000000
       285        57  DCM       CL2             0.6810924492        0.3892908077        9.5112316397  CLST      57              1.0000000000
       286        58  DCM       C              13.0075374963       10.1280115704       12.4342635993  CLST      58              1.0000000000
       287        58  DCM       H1             13.8486839732       10.8509270344       12.3770699608  CLST      58              1.0000000000
       288        58  DCM       H2             13.2086724876        9.3380015066       13.1884488734  CLST      58              1.0000000000
       289        58  DCM       CL1            11.5185151125       11.0045871763       12.8940786953  CLST      58              1.0000000000
       290        58  DCM       CL2            12.7907272422        9.3612632825       10.8336094304  CLST      58              1.0000000000
       291        59  DCM       C               0.1144046332        3.9002123814       -4.1433397401  CLST      59              1.0000000000
       292        59  DCM       H1              0.1147622016        4.5797745172       -5.0214720343  CLST      59              1.0000000000
       293        59  DCM       H2             -0.8874677760        3.4522344488       -3.9833187937  CLST      59              1.0000000000
       294        59  DCM       CL1             0.5675674014        4.8302667879       -2.6870952279  CLST      59              1.0000000000
       295        59  DCM       CL2             1.2944625257        2.5890831095       -4.4236398822  CLST      59              1.0000000000
       296        60  DCM       C             -10.9884544090       -5.6714610407      -10.2162070241  CLST      60              1.0000000000
       297        60  DCM       H1            -11.4536819592       -5.5755722559      -11.2183242425  CLST      60              1.0000000000
       298        60  DCM       H2            -11.4828679403       -5.0002462944       -9.4800364474  CLST      60              1.0000000000
       299        60  DCM       CL1           -11.1546379566       -7.3609326500       -9.6572033680  CLST      60              1.0000000000
       300        60  DCM       CL2            -9.2579501008       -5.2336820412      -10.3299852959  CLST      60              1.0000000000
       301        61  DCM       C              -4.0008236375       12.6403361813      -11.0269096494  CLST      61              1.0000000000
       302        61  DCM       H1             -4.5693372891       13.3685585284      -10.4107116720  CLST      61              1.0000000000
       303        61  DCM       H2             -3.0010031527       12.4380236208      -10.5877313074  CLST      61              1.0000000000
       304        61  DCM       CL1            -4.9189645669       11.1082553807      -11.1105999655  CLST      61              1.0000000000
       305        61  DCM       CL2            -3.7880125583       13.3114353274      -12.6704963050  CLST      61              1.0000000000
       306        62  DCM       C              -7.0478336039        7.1682981906       -4.0879954616  CLST      62              1.0000000000
       307        62  DCM       H1             -6.2297068862        7.9171005292       -4.0734220163  CLST      62              1.0000000000
       308        62  DCM       H2             -6.6452354833        6.1339325335       -4.0411554058  CLST      62              1.0000000000
       309        62  DCM       CL1            -8.1075634975        7.4393069788       -2.6743157110  CLST      62              1.0000000000
       310        62  DCM       CL2            -7.9838459696        7.3655300156       -5.5975040101  CLST      62              1.0000000000
       311        63  DCM       C             -11.3518652032        8.2980584743       -4.4524754033  CLST      63              1.0000000000
       312        63  DCM       H1            -12.3062558233        8.3358188065       -3.8861722507  CLST      63              1.0000000000
       313        63  DCM       H2            -10.6904227898        7.4962757573       -4.0635371681  CLST      63              1.0000000000
       314        63  DCM       CL1           -11.7061279896        7.9737008290       -6.1747471572  CLST      63              1.0000000000
       315        63  DCM       CL2           -10.5129367899        9.8684867003       -4.2912579497  CLST      63              1.0000000000
       316        64  DCM       C              -6.1519964127       -8.7467963549       -8.6836493130  CLST      64              1.0000000000
       317        64  DCM       H1             -5.2434310563       -8.5411570211       -9.2830496731  CLST      64              1.0000000000
       318        64  DCM       H2             -6.1783097387       -8.1087551114       -7.7770154361  CLST      64              1.0000000000
       319        64  DCM       CL1            -7.5897342563       -8.4084578774       -9.6874817903  CLST      64              1.0000000000
       320        64  DCM       CL2            -6.1490828483      -10.4624563166       -8.1867772912  CLST      64              1.0000000000
       321        65  DCM       C             -10.7163831785        5.5827615344       -9.0110844833  CLST      65              1.0000000000
       322        65  DCM       H1            -10.7245329098        5.2362946771      -10.0653331580  CLST      65              1.0000000000
       323        65  DCM       H2            -10.8651755581        6.6817112292       -8.9474848856  CLST      65              1.0000000000
       324        65  DCM       CL1           -12.0344801283        4.7662104447       -8.1221203083  CLST      65              1.0000000000
       325        65  DCM       CL2            -9.1411471825        5.1670771517       -8.2761886791  CLST      65              1.0000000000
       326        66  DCM       C              -0.4992036233       -7.0571012443        9.1690971744  CLST      66              1.0000000000
       327        66  DCM       H1             -1.0137377579       -7.1458901691        8.1894504485  CLST      66              1.0000000000
       328        66  DCM       H2             -1.1866322196       -6.6589681867        9.9448775418  CLST      66              1.0000000000
       329        66  DCM       CL1             0.0749450738       -8.6718825282        9.6735086236  CLST      66              1.0000000000
       330        66  DCM       CL2             0.8887081508       -5.9454244664        8.9992675079  CLST      66              1.0000000000
       331        67  DCM       C              -3.8088938216       -3.2173973134        5.2383404541  CLST      67              1.0000000000
       332        67  DCM       H1             -3.8652433636       -4.2961849555        4.9821182901  CLST      67              1.0000000000
       333        67  DCM       H2             -3.3930291121       -3.0750329759        6.2563045117  CLST      67              1.0000000000
       334        67  DCM       CL1            -2.7481890795       -2.3878909679        4.0642534323  CLST      67              1.0000000000
       335        67  DCM       CL2            -5.4489461278       -2.5085242256        5.1745969608  CLST      67              1.0000000000
       336        68  DCM       C               9.1757292531        6.7322550591        2.5927742502  CLST      68              1.0000000000
       337        68  DCM       H1              8.9646663607        5.9550690628        1.8280686348  CLST      68              1.0000000000
       338        68  DCM       H2             10.2044633865        6.6229611969        2.9962313152  CLST      68              1.0000000000
       339        68  DCM       CL1             9.0160920560        8.3472901345        1.8443777889  CLST      68              1.0000000000
       340        68  DCM       CL2             8.0032143920        6.5662226627        3.9323840950  CLST      68              1.0000000000
       341        69  DCM       C               5.5261825751        0.0604073088       -4.7737633129  CLST      69              1.0000000000
       342        69  DCM       H1              6.4960547832       -0.4386385567       -4.5675994785  CLST      69              1.0000000000
       343        69  DCM       H2              4.9388162622       -0.5060471819       -5.5265932546  CLST      69              1.0000000000
       344        69  DCM       CL1             4.5852629073        0.1622006538       -3.2603535820  CLST      69              1.0000000000
       345        69  DCM       CL2             5.8405146889        1.7037605959       -5.3973500681  CLST      69              1.0000000000
       346        70  DCM       C             -12.4077407479       -0.4255135110       10.1236004876  CLST      70              1.0000000000
       347        70  DCM       H1            -11.7904642257        0.1885786338        9.4350820848  CLST      70              1.0000000000
       348        70  DCM       H2            -13.4769820108       -0.4063578085        9.8244352636  CLST      70              1.0000000000
       349        70  DCM       CL1           -11.8205751736       -2.1126615417       10.0805863868  CLST      70              1.0000000000
       350        70  DCM       CL2           -12.2545015579        0.2273590368       11.7802918047  CLST      70              1.0000000000
       351        71  DCM       C               9.5233778276       -2.8784921083       -3.2776620822  CLST      71              1.0000000000
       352        71  DCM       H1             10.5173991645       -2.5077219223       -2.9502219784  CLST      71              1.0000000000
       353        71  DCM       H2              9.3390374692       -3.9107613227       -2.9127627319  CLST      71              1.0000000000
       354        71  DCM       CL1             8.2595967332       -1.7959562586       -2.6260242325  CLST      71              1.0000000000
       355        71  DCM       CL2             9.4638589292       -2.8791904375       -5.0637445687  CLST      71              1.0000000000
       356        72  DCM       C               0.6133798706       -6.3694909239        5.1571231083  CLST      72              1.0000000000
       357        72  DCM       H1              0.7242226440       -7.3536959781        5.6552537541  CLST      72              1.0000000000
       358        72  DCM       H2              1.4605094323       -5.6995000278        5.4094203568  CLST      72              1.0000000000
       359        72  DCM       CL1            -0.9078608895       -5.6076647034        5.7013256142  CLST      72              1.0000000000
       360        72  DCM       CL2             0.5748217384       -6.6186791136        3.3884375586  CLST      72              1.0000000000
       361        73  DCM       C               8.4846869175        4.3183075899       -5.5800857643  CLST      73              1.0000000000
       362        73  DCM       H1              9.3927529487        4.9500605038       -5.4809073441  CLST      73              1.0000000000
       363        73  DCM       H2              8.5589237875        3.4125463914       -4.9437845104  CLST      73              1.0000000000
       364        73  DCM       CL1             7.0589253307        5.2665832125       -5.0686508917  CLST      73              1.0000000000
       365        73  DCM       CL2             8.3026698781        3.8158249414       -7.2865496676  CLST      73              1.0000000000
       366        74  DCM       C              -4.0104771897        2.8938212277       -2.5611019205  CLST      74              1.0000000000
       367        74  DCM       H1             -3.9524659560        1.9888472232       -1.9204733556  CLST      74              1.0000000000
       368        74  DCM       H2             -3.6145508027        2.6896833099       -3.5775975191  CLST      74              1.0000000000
       369        74  DCM       CL1            -5.7145080658        3.4133962130       -2.6978367387  CLST      74              1.0000000000
       370        74  DCM       CL2            -3.0371482125        4.1975324817       -1.8256483991  CLST      74              1.0000000000
       371        75  DCM       C               5.8529652560       -2.2712561359        5.1344658504  CLST      75              1.0000000000
       372        75  DCM       H1              5.3651830415       -3.2080085295        4.7940607231  CLST      75              1.0000000000
       373        75  DCM       H2              6.7460261108       -2.0371063397        4.5171176222  CLST      75              1.0000000000
       374        75  DCM       CL1             4.6874032441       -0.9211987829        5.0208248097  CLST      75              1.0000000000
       375        75  DCM       CL2             6.3628109193       -2.4872045760        6.8282773949  CLST      75              1.0000000000
       376        76  DCM       C              -9.1599891566        4.9703973125        6.9700639902  CLST      76              1.0000000000
       377        76  DCM       H1             -8.6005740206        4.8861929345        7.9245739792  CLST      76              1.0000000000
       378        76  DCM       H2             -8.8191360788        4.2062528149        6.2400152633  CLST      76              1.0000000000
       379        76  DCM       CL1           -10.8995869572        4.7338683589        7.2983631638  CLST      76              1.0000000000
       380        76  DCM       CL2            -8.8893620223        6.5968668155        6.2815418446  CLST      76              1.0000000000
       381        77  DCM       C               4.0335889960        0.4463793279       -8.4920035691  CLST      77              1.0000000000
       382        77  DCM       H1              5.0138325296        0.9211981546       -8.2775295521  CLST      77              1.0000000000
       383        77  DCM       H2              3.6789187375        0.7019564127       -9.5131066113  CLST      77              1.0000000000
       384        77  DCM       CL1             4.2039043219       -1.3263536996       -8.3599336847  CLST      77              1.0000000000
       385        77  DCM       CL2             2.8363175449        1.0227996042       -7.3000624924  CLST      77              1.0000000000
       386        78  DCM       C              -1.0459867597       -2.5562092783        0.8466594584  CLST      78              1.0000000000
       387        78  DCM       H1             -1.1070512785       -3.2559508301        1.7069646532  CLST      78              1.0000000000
       388        78  DCM       H2             -2.0508515249       -2.1912032622        0.5517654254  CLST      78              1.0000000000
       389        78  DCM       CL1            -0.0464712922       -1.1473043578        1.2996180213  CLST      78              1.0000000000
       390        78  DCM       CL2            -0.3058676940       -3.4078731017       -0.5378815172  CLST      78              1.0000000000
       391        79  DCM       C               4.6445181647        4.3879765782       -7.7899514766  CLST      79              1.0000000000
       392        79  DCM       H1              5.1558032428        5.3642408966       -7.9294637196  CLST      79              1.0000000000
       393        79  DCM       H2              5.3797306259        3.5631491845       -7.6869149974  CLST      79              1.0000000000
       394        79  DCM       CL1             3.6516421795        4.4632088555       -6.3073559509  CLST      79              1.0000000000
       395        79  DCM       CL2             3.6015212183        4.0629348457       -9.2048799800  CLST      79              1.0000000000
       396        80  DCM       C              -4.7797884041       -1.1190955471        8.5471239995  CLST      80              1.0000000000
       397        80  DCM       H1             -5.7486295723       -0.5811095869        8.4978061218  CLST      80              1.0000000000
       398        80  DCM       H2             -4.8912753583       -2.1699210452        8.2058423413  CLST      80              1.0000000000
       399        80  DCM       CL1            -3.6036311394       -0.2812307762        7.4941110617  CLST      80              1.0000000000
       400        80  DCM       CL2            -4.1963640803       -1.1145354208       10.2368320883  CLST      80              1.0000000000
       401        81  DCM       C             -12.7198127908        1.2084169894       -4.9472714991  CLST      81              1.0000000000
       402        81  DCM       H1            -13.0445387357        1.9553804390       -4.1921376862  CLST      81              1.0000000000
       403        81  DCM       H2            -11.6131462084        1.1279562210       -4.9778070604  CLST      81              1.0000000000
       404        81  DCM       CL1           -13.4082687965       -0.3844414409       -4.5190673390  CLST      81              1.0000000000
       405        81  DCM       CL2           -13.3099084012        1.7134909277       -6.5563477503  CLST      81              1.0000000000
       406        82  DCM       C              -2.4777323691       -5.2211558406       -9.6754238163  CLST      82              1.0000000000
       407        82  DCM       H1             -2.7061435930       -5.0729964316      -10.7520650544  CLST      82              1.0000000000
       408        82  DCM       H2             -1.8899622249       -6.1497164318       -9.5174379342  CLST      82              1.0000000000
       409        82  DCM       CL1            -1.5223429901       -3.8309032566       -9.0871124040  CLST      82              1.0000000000
       410        82  DCM       CL2            -4.0110824026       -5.3380595769       -8.7618141509  CLST      82              1.0000000000
       411        83  DCM       C              -9.3900485634        1.5231688115       -9.0103165464  CLST      83              1.0000000000
       412        83  DCM       H1             -8.6883143283        2.3116231202       -9.3563484372  CLST      83              1.0000000000
       413        83  DCM       H2             -8.9787751844        0.5106763932       -9.1983806516  CLST      83              1.0000000000
       414        83  DCM       CL1            -9.6687286487        1.7130076450       -7.2573448420  CLST      83              1.0000000000
       415        83  DCM       CL2           -10.9378797331        1.6897339867       -9.8865093652  CLST      83              1.0000000000
       416        84  DCM       C              -1.7050918904       -9.3426979373        4.7063625811  CLST      84              1.0000000000
       417        84  DCM       H1             -1.8003755856       -8.2466648008        4.5551267708  CLST      84              1.0000000000
       418        84  DCM       H2             -2.7029845718       -9.8287210000        4.7268851614  CLST      84              1.0000000000
       419        84  DCM       CL1            -0.7536147531      -10.0302240374        3.3592273715  CLST      84              1.0000000000
       420        84  DCM       CL2            -0.8744873691       -9.6537422972        6.2579568240  CLST      84              1.0000000000
       421        85  DCM       C              -5.0104600034       -9.3404683692      -12.3311926166  CLST      85              1.0000000000
       422        85  DCM       H1             -4.7929415306       -9.5355128750      -13.4023822882  CLST      85              1.0000000000
       423        85  DCM       H2             -6.1043513081       -9.3522953763      -12.1377812695  CLST      85              1.0000000000
       424        85  DCM       CL1            -4.2337274982      -10.6093894869      -11.3399269524  CLST      85              1.0000000000
       425        85  DCM       CL2            -4.3577948151       -7.7356581928      -11.8869252014  CLST      85              1.0000000000
       426        86  DCM       C             -11.4301867430       -1.5563828647       -7.5425527351  CLST      86              1.0000000000
       427        86  DCM       H1            -11.7650769906       -0.5126750334       -7.7167645871  CLST      86              1.0000000000
       428        86  DCM       H2            -12.2966635147       -2.2359256913       -7.3994596712  CLST      86              1.0000000000
       429        86  DCM       CL1           -10.4845171417       -2.1021654278       -8.9560827305  CLST      86              1.0000000000
       430        86  DCM       CL2           -10.4071339216       -1.6028469389       -6.0783403045  CLST      86              1.0000000000
       431        87  DCM       C              -9.3723652212        4.4408525188       12.5266893415  CLST      87              1.0000000000
       432        87  DCM       H1            -10.3270413389        4.9545510585       12.7683882229  CLST      87              1.0000000000
       433        87  DCM       H2             -8.5681805010        4.7390648003       13.2317951234  CLST      87              1.0000000000
       434        87  DCM       CL1            -9.6084159674        2.6729029634       12.6401116474  CLST      87              1.0000000000
       435        87  DCM       CL2            -8.8810406244        4.8807767591       10.8658968308  CLST      87              1.0000000000
       436        88  DCM       C              -4.1041225071        3.9189057389       -9.2070845893  CLST      88              1.0000000000
       437        88  DCM       H1             -3.7441512703        3.4890515848       -8.2489520163  CLST      88              1.0000000000
       438        88  DCM       H2             -4.3301912711        5.0007898238       -9.0946525018  CLST      88              1.0000000000
       439        88  DCM       CL1            -2.8335614709        3.7148415152      -10.4462605447  CLST      88              1.0000000000
       440        88  DCM       CL2            -5.5885182720        3.0608604510       -9.7182835602  CLST      88              1.0000000000
       441        89  DCM       C               4.5296089016        3.7766758170       -2.7180825393  CLST      89              1.0000000000
       442        89  DCM       H1              5.6046887722        3.6428895848       -2.9547878767  CLST      89              1.0000000000
       443        89  DCM       H2              3.8945814590        3.2887319431       -3.4861013654  CLST      89              1.0000000000
       444        89  DCM       CL1             4.1833625119        3.0427785993       -1.1263291684  CLST      89              1.0000000000
       445        89  DCM       CL2             4.1531714599        5.5230455705       -2.6769713867  CLST      89              1.0000000000
       446        90  DCM       C              -0.9229405020       -9.2615461527      -12.1320379019  CLST      90              1.0000000000
       447        90  DCM       H1             -1.4359232132       -9.5441712671      -13.0746034895  CLST      90              1.0000000000
       448        90  DCM       H2             -1.4998727254       -9.6009183401      -11.2465215555  CLST      90              1.0000000000
       449        90  DCM       CL1            -0.7600348952       -7.4835118739      -12.0644511214  CLST      90              1.0000000000
       450        90  DCM       CL2             0.6937139045      -10.0224173258      -12.0935240035  CLST      90              1.0000000000
       451        91  DCM       C              -2.6267865795       -0.8877764125       -4.1446058267  CLST      91              1.0000000000
       452        91  DCM       H1             -3.6819288498       -0.7214297571       -4.4430205550  CLST      91              1.0000000000
       453        91  DCM       H2             -2.1570394566       -1.6793437831       -4.7658905085  CLST      91              1.0000000000
       454        91  DCM       CL1            -1.7227164791        0.6350660209       -4.3586775692  CLST      91              1.0000000000
       455        91  DCM       CL2            -2.5681374401       -1.3828245187       -2.4304740287  CLST      91              1.0000000000
       456        92  DCM       C              -4.5094361210        8.9643917380       -1.3135207173  CLST      92              1.0000000000
       457        92  DCM       H1             -3.7376937358        9.2249741009       -0.5571702020  CLST      92              1.0000000000
       458        92  DCM       H2             -5.4806726740        9.4477089744       -1.0777738833  CLST      92              1.0000000000
       459        92  DCM       CL1            -3.9575699793        9.5140747317       -2.9222427489  CLST      92              1.0000000000
       460        92  DCM       CL2            -4.7322972423        7.1926238344       -1.3240835092  CLST      92              1.0000000000
       461        93  DCM       C               2.7739045905       -4.4653202601       -9.9195417340  CLST      93              1.0000000000
       462        93  DCM       H1              3.5165067125       -5.2895358525       -9.8796871656  CLST      93              1.0000000000
       463        93  DCM       H2              3.2550430573       -3.5099459947      -10.2173470321  CLST      93              1.0000000000
       464        93  DCM       CL1             1.5054855653       -4.8730428488      -11.1100808927  CLST      93              1.0000000000
       465        93  DCM       CL2             2.0377699622       -4.2673737981       -8.3052439662  CLST      93              1.0000000000
       466        94  DCM       C              -9.3264355741       -8.7795359591       -6.5754914955  CLST      94              1.0000000000
       467        94  DCM       H1             -9.5796795227       -7.9451494324       -7.2618085308  CLST      94              1.0000000000
       468        94  DCM       H2             -8.2295139397       -8.9298650879       -6.5219231406  CLST      94              1.0000000000
       469        94  DCM       CL1            -9.9418207196       -8.4012301551       -4.9414720329  CLST      94              1.0000000000
       470        94  DCM       CL2           -10.0820904748      -10.2807054108       -7.1806269153  CLST      94              1.0000000000
       471        95  DCM       C              -8.6086971620       -4.8300319256       -6.0708414645  CLST      95              1.0000000000
       472        95  DCM       H1             -8.5195301002       -5.2740107035       -5.0580684872  CLST      95              1.0000000000
       473        95  DCM       H2             -8.4026456318       -3.7399348984       -6.0487522480  CLST      95              1.0000000000
       474        95  DCM       CL1            -7.4319522135       -5.6222673639       -7.1545055916  CLST      95              1.0000000000
       475        95  DCM       CL2           -10.2681669675       -5.1040219143       -6.6723478229  CLST      95              1.0000000000
