* INITIAL
*  DATE:     6/28/26      2: 3:50      CREATED BY USER: boittier
*
       475  EXT
         1         1  DCM       C              -2.1613081720       -0.2561475096        2.7565354445  CLST      1               1.0000000000
         2         1  DCM       H1             -1.2139432832       -0.2720990556        3.3360518164  CLST      1               1.0000000000
         3         1  DCM       H2             -2.8205998910       -1.1029158341        3.0442843009  CLST      1               1.0000000000
         4         1  DCM       CL1            -3.0202589070        1.2701214503        3.0849340724  CLST      1               1.0000000000
         5         1  DCM       CL2            -1.7903538633       -0.3587718175        1.0114916350  CLST      1               1.0000000000
         6         2  DCM       C               0.2533659476       -8.0749720379        9.1025735394  CLST      2               1.0000000000
         7         2  DCM       H1              0.1728481318       -6.9680326157        9.0612664960  CLST      2               1.0000000000
         8         2  DCM       H2              0.7587611208       -8.4027129782       10.0350289216  CLST      2               1.0000000000
         9         2  DCM       CL1             1.2013935054       -8.6422004462        7.6993735748  CLST      2               1.0000000000
        10         2  DCM       CL2            -1.3876055141       -8.7818484225        9.0447804201  CLST      2               1.0000000000
        11         3  DCM       C              10.7137953352        0.0385130828       -2.1236933652  CLST      3               1.0000000000
        12         3  DCM       H1             11.5463462012        0.2091633921       -2.8383865471  CLST      3               1.0000000000
        13         3  DCM       H2             10.4766893606        0.9654654421       -1.5634396074  CLST      3               1.0000000000
        14         3  DCM       CL1             9.2616139059       -0.4828389936       -3.0268767639  CLST      3               1.0000000000
        15         3  DCM       CL2            11.1973224993       -1.2258175957       -0.9589537591  CLST      3               1.0000000000
        16         4  DCM       C              -5.5494261421       -0.0135679166        6.9696567297  CLST      4               1.0000000000
        17         4  DCM       H1             -5.0053851779       -0.9799184674        7.0127269795  CLST      4               1.0000000000
        18         4  DCM       H2             -4.9796108570        0.7888616355        7.4823151968  CLST      4               1.0000000000
        19         4  DCM       CL1            -5.7858539890        0.4445432005        5.2599133462  CLST      4               1.0000000000
        20         4  DCM       CL2            -7.1345007737       -0.1989551496        7.7719567968  CLST      4               1.0000000000
        21         5  DCM       C              -0.2559758323       -1.6865093223      -16.4508776875  CLST      5               1.0000000000
        22         5  DCM       H1             -1.0189399540       -2.4844259423      -16.5694208416  CLST      5               1.0000000000
        23         5  DCM       H2              0.1191045491       -1.3414302667      -17.4374815932  CLST      5               1.0000000000
        24         5  DCM       CL1             1.1152967002       -2.3294450890      -15.5005500451  CLST      5               1.0000000000
        25         5  DCM       CL2            -0.9933059571       -0.3013691501      -15.5939146608  CLST      5               1.0000000000
        26         6  DCM       C             -12.0038551621        1.8329022401       -0.7623767644  CLST      6               1.0000000000
        27         6  DCM       H1            -12.0617465881        1.4574953928        0.2815198744  CLST      6               1.0000000000
        28         6  DCM       H2            -12.5676447135        2.7828928500       -0.8762074913  CLST      6               1.0000000000
        29         6  DCM       CL1           -10.2908060747        2.1179368307       -1.1880087138  CLST      6               1.0000000000
        30         6  DCM       CL2           -12.7050777278        0.6109034065       -1.8626463633  CLST      6               1.0000000000
        31         7  DCM       C              -5.9722650274        5.8010762489       -7.7734025779  CLST      7               1.0000000000
        32         7  DCM       H1             -5.1857189864        5.0207117178       -7.6972795285  CLST      7               1.0000000000
        33         7  DCM       H2             -6.2237540201        6.0102243264       -8.8349749685  CLST      7               1.0000000000
        34         7  DCM       CL1            -7.4401856297        5.2305081953       -6.9261930405  CLST      7               1.0000000000
        35         7  DCM       CL2            -5.3719823269        7.3013727047       -7.0085975290  CLST      7               1.0000000000
        36         8  DCM       C               1.5359044718        9.3926969937        7.4303376750  CLST      8               1.0000000000
        37         8  DCM       H1              1.5709068551       10.0224942395        8.3444959356  CLST      8               1.0000000000
        38         8  DCM       H2              2.5311651443        8.9504644860        7.2129137991  CLST      8               1.0000000000
        39         8  DCM       CL1             0.3521142948        8.0750871481        7.6738432305  CLST      8               1.0000000000
        40         8  DCM       CL2             1.0360363129       10.4067379614        6.0462539450  CLST      8               1.0000000000
        41         9  DCM       C               0.8080980545        2.2735850702        2.5009886874  CLST      9               1.0000000000
        42         9  DCM       H1             -0.2421374107        2.1555795289        2.1684071464  CLST      9               1.0000000000
        43         9  DCM       H2              1.5046216596        1.7182753453        1.8405583884  CLST      9               1.0000000000
        44         9  DCM       CL1             1.2238862026        4.0076543381        2.4696949502  CLST      9               1.0000000000
        45         9  DCM       CL2             0.9684170140        1.6576286630        4.1691483120  CLST      9               1.0000000000
        46        10  DCM       C               9.7663846812        8.4155084292        2.4554561257  CLST      10              1.0000000000
        47        10  DCM       H1              9.3333229703        7.9750163300        3.3776806290  CLST      10              1.0000000000
        48        10  DCM       H2              9.4841917748        7.8214217746        1.5613175055  CLST      10              1.0000000000
        49        10  DCM       CL1             9.1537054897       10.0823641677        2.2594180202  CLST      10              1.0000000000
        50        10  DCM       CL2            11.5463816241        8.4389636265        2.6123875334  CLST      10              1.0000000000
        51        11  DCM       C              -5.4176460799       10.6433467988       -4.8708326248  CLST      11              1.0000000000
        52        11  DCM       H1             -4.5131263784       11.0653283756       -4.3841939463  CLST      11              1.0000000000
        53        11  DCM       H2             -5.1883309373       10.3132588991       -5.9070548127  CLST      11              1.0000000000
        54        11  DCM       CL1            -5.9905496233        9.2381197278       -3.9207675599  CLST      11              1.0000000000
        55        11  DCM       CL2            -6.6887063063       11.9017923787       -4.9240700564  CLST      11              1.0000000000
        56        12  DCM       C              12.1827121115        2.8957244879        0.4960678997  CLST      12              1.0000000000
        57        12  DCM       H1             11.3664893038        3.5082378516        0.0524699847  CLST      12              1.0000000000
        58        12  DCM       H2             12.8176388273        3.5071782685        1.1715744606  CLST      12              1.0000000000
        59        12  DCM       CL1            11.4640042960        1.5522369552        1.4301686312  CLST      12              1.0000000000
        60        12  DCM       CL2            13.1970095080        2.2447192926       -0.8229822832  CLST      12              1.0000000000
        61        13  DCM       C               6.6502085060       -8.8366101408       -0.9320308508  CLST      13              1.0000000000
        62        13  DCM       H1              6.6471760824       -9.0759565288       -2.0161015278  CLST      13              1.0000000000
        63        13  DCM       H2              7.5101352283       -9.3164085736       -0.4186722735  CLST      13              1.0000000000
        64        13  DCM       CL1             6.7645851975       -7.0655880804       -0.7252894958  CLST      13              1.0000000000
        65        13  DCM       CL2             5.1316109790       -9.4344404823       -0.2073113144  CLST      13              1.0000000000
        66        14  DCM       C             -11.0562770111       -4.2559080590        2.5288591211  CLST      14              1.0000000000
        67        14  DCM       H1            -10.3006404930       -4.6240539510        3.2525345398  CLST      14              1.0000000000
        68        14  DCM       H2            -12.0059253478       -3.9932458718        3.0400703345  CLST      14              1.0000000000
        69        14  DCM       CL1           -10.4150904521       -2.8044772240        1.7089579576  CLST      14              1.0000000000
        70        14  DCM       CL2           -11.3803874989       -5.5329151081        1.3219373195  CLST      14              1.0000000000
        71        15  DCM       C              -3.8705580256       -3.6697859999        4.9455428544  CLST      15              1.0000000000
        72        15  DCM       H1             -4.2333774356       -4.4288419182        5.6730431415  CLST      15              1.0000000000
        73        15  DCM       H2             -3.3259563750       -4.1536531147        4.1078949907  CLST      15              1.0000000000
        74        15  DCM       CL1            -5.2703857004       -2.7872601462        4.2852011786  CLST      15              1.0000000000
        75        15  DCM       CL2            -2.7839374654       -2.5227926721        5.7795784709  CLST      15              1.0000000000
        76        16  DCM       C               3.5840762925        4.5389226153       -3.9051633810  CLST      16              1.0000000000
        77        16  DCM       H1              3.6144593837        3.5463194041       -3.4078576927  CLST      16              1.0000000000
        78        16  DCM       H2              3.6340388488        4.4341017102       -5.0092108331  CLST      16              1.0000000000
        79        16  DCM       CL1             2.0573694000        5.3590778347       -3.4692177232  CLST      16              1.0000000000
        80        16  DCM       CL2             4.9743851192        5.5174403930       -3.3493291059  CLST      16              1.0000000000
        81        17  DCM       C              -8.2185421077        6.8528842945       -2.0253187566  CLST      17              1.0000000000
        82        17  DCM       H1             -8.8807454496        7.5213238468       -1.4349640910  CLST      17              1.0000000000
        83        17  DCM       H2             -7.1562765635        7.1648233376       -1.9376512923  CLST      17              1.0000000000
        84        17  DCM       CL1            -8.3861751850        5.1810110108       -1.4145090991  CLST      17              1.0000000000
        85        17  DCM       CL2            -8.7069456824        6.9227209060       -3.7442133254  CLST      17              1.0000000000
        86        18  DCM       C              -9.6962663638        0.9086585182        2.5333417764  CLST      18              1.0000000000
        87        18  DCM       H1             -8.8383414158        0.6935596535        3.2066674035  CLST      18              1.0000000000
        88        18  DCM       H2             -9.5640067502        0.4133880464        1.5482168790  CLST      18              1.0000000000
        89        18  DCM       CL1           -11.1931873472        0.2986326268        3.2917234134  CLST      18              1.0000000000
        90        18  DCM       CL2            -9.8252808093        2.6757682807        2.2923222794  CLST      18              1.0000000000
        91        19  DCM       C              -1.3791658742        4.8443279562        6.3386671374  CLST      19              1.0000000000
        92        19  DCM       H1             -2.2169069909        4.5083591833        6.9837972533  CLST      19              1.0000000000
        93        19  DCM       H2             -1.2764552954        5.9493776331        6.3644203836  CLST      19              1.0000000000
        94        19  DCM       CL1             0.1368674173        4.0975197799        6.9201854628  CLST      19              1.0000000000
        95        19  DCM       CL2            -1.6939417392        4.3359386609        4.6561914181  CLST      19              1.0000000000
        96        20  DCM       C               7.1097124606        3.4949647224       -1.2597253803  CLST      20              1.0000000000
        97        20  DCM       H1              7.4363456568        4.3408759060       -1.9012923385  CLST      20              1.0000000000
        98        20  DCM       H2              6.4161855915        3.8413738578       -0.4652470603  CLST      20              1.0000000000
        99        20  DCM       CL1             6.2844148500        2.2744390136       -2.2729804645  CLST      20              1.0000000000
       100        20  DCM       CL2             8.5463404796        2.7658498631       -0.4926138783  CLST      20              1.0000000000
       101        21  DCM       C              -8.1069161748       -9.1417490537       -4.4614201275  CLST      21              1.0000000000
       102        21  DCM       H1             -7.3201728397       -9.6531732410       -5.0557194843  CLST      21              1.0000000000
       103        21  DCM       H2             -7.9757962381       -8.0387139680       -4.4898270749  CLST      21              1.0000000000
       104        21  DCM       CL1            -9.7079626106       -9.5510117913       -5.1414356769  CLST      21              1.0000000000
       105        21  DCM       CL2            -8.0086715998       -9.6963214709       -2.7653400962  CLST      21              1.0000000000
       106        22  DCM       C              11.3262339623       -3.1198888478       -4.2885237443  CLST      22              1.0000000000
       107        22  DCM       H1             10.8551517477       -3.0300818745       -3.2884216180  CLST      22              1.0000000000
       108        22  DCM       H2             10.6895415059       -2.6554648994       -5.0704457601  CLST      22              1.0000000000
       109        22  DCM       CL1            12.9102577049       -2.2920554255       -4.2540800005  CLST      22              1.0000000000
       110        22  DCM       CL2            11.5500209396       -4.8521347347       -4.6667459359  CLST      22              1.0000000000
       111        23  DCM       C             -10.3858476054       -6.6639495561       -2.2468539241  CLST      23              1.0000000000
       112        23  DCM       H1             -9.4320606731       -7.1150143874       -1.9028154278  CLST      23              1.0000000000
       113        23  DCM       H2            -10.7181213256       -5.8615286755       -1.5560528685  CLST      23              1.0000000000
       114        23  DCM       CL1           -10.1446861119       -5.9667184149       -3.8750091565  CLST      23              1.0000000000
       115        23  DCM       CL2           -11.6377124750       -7.9374283632       -2.3052252069  CLST      23              1.0000000000
       116        24  DCM       C             -13.9111452740       -2.7305257796        0.3367032704  CLST      24              1.0000000000
       117        24  DCM       H1            -12.9400309657       -3.1846104068        0.0483578646  CLST      24              1.0000000000
       118        24  DCM       H2            -14.5694591953       -2.6025082892       -0.5487924448  CLST      24              1.0000000000
       119        24  DCM       CL1           -14.7231318401       -3.7959483220        1.5200450961  CLST      24              1.0000000000
       120        24  DCM       CL2           -13.6104795696       -1.1317076055        1.0750820911  CLST      24              1.0000000000
       121        25  DCM       C              -7.3971230330       -8.7856123102        0.7395035556  CLST      25              1.0000000000
       122        25  DCM       H1             -7.3399870534       -9.6922787124        0.1024086287  CLST      25              1.0000000000
       123        25  DCM       H2             -6.7836390406       -7.9609442082        0.3177793304  CLST      25              1.0000000000
       124        25  DCM       CL1            -9.1005685965       -8.2573368674        0.8334978844  CLST      25              1.0000000000
       125        25  DCM       CL2            -6.7952625232       -9.1939938079        2.3728690935  CLST      25              1.0000000000
       126        26  DCM       C              -0.7851053936       13.5077435450       -0.9043998771  CLST      26              1.0000000000
       127        26  DCM       H1             -1.1438144993       12.5113805150       -1.2369781119  CLST      26              1.0000000000
       128        26  DCM       H2             -1.0594895011       14.2950780640       -1.6372903226  CLST      26              1.0000000000
       129        26  DCM       CL1            -1.5320700416       13.8936403525        0.6731827976  CLST      26              1.0000000000
       130        26  DCM       CL2             0.9946968307       13.4631034951       -0.7410385182  CLST      26              1.0000000000
       131        27  DCM       C              -7.3228332422       -5.4253586599        3.0012661132  CLST      27              1.0000000000
       132        27  DCM       H1             -8.0935015566       -6.0324930535        2.4785510149  CLST      27              1.0000000000
       133        27  DCM       H2             -7.5013386327       -4.3411474498        2.8505097795  CLST      27              1.0000000000
       134        27  DCM       CL1            -7.3862230913       -5.7935984177        4.7478997515  CLST      27              1.0000000000
       135        27  DCM       CL2            -5.7098014515       -5.8439771585        2.3541889860  CLST      27              1.0000000000
       136        28  DCM       C               4.4658693232      -10.3359604567        3.4912364097  CLST      28              1.0000000000
       137        28  DCM       H1              5.1058460311       -9.6700632149        2.8753288599  CLST      28              1.0000000000
       138        28  DCM       H2              5.0290022299      -11.2310193588        3.8294534678  CLST      28              1.0000000000
       139        28  DCM       CL1             3.8977857555       -9.4295405403        4.9238674645  CLST      28              1.0000000000
       140        28  DCM       CL2             3.0688172736      -10.8635968804        2.5079559721  CLST      28              1.0000000000
       141        29  DCM       C               2.5265102352      -17.8655827303       -0.3545181720  CLST      29              1.0000000000
       142        29  DCM       H1              2.2373560307      -18.7318020900        0.2775578622  CLST      29              1.0000000000
       143        29  DCM       H2              3.1777914160      -18.1835138814       -1.1960952702  CLST      29              1.0000000000
       144        29  DCM       CL1             1.0474307886      -17.1109001957       -1.0179590061  CLST      29              1.0000000000
       145        29  DCM       CL2             3.4126890320      -16.6823304827        0.6515094694  CLST      29              1.0000000000
       146        30  DCM       C               3.7540630489        8.9989855075       -3.1037266533  CLST      30              1.0000000000
       147        30  DCM       H1              3.7356591649        8.0872910503       -2.4707865656  CLST      30              1.0000000000
       148        30  DCM       H2              3.2582294578        9.8496923215       -2.5903324131  CLST      30              1.0000000000
       149        30  DCM       CL1             5.4521462596        9.4384890042       -3.4438776538  CLST      30              1.0000000000
       150        30  DCM       CL2             2.8987228731        8.6633006676       -4.6378690812  CLST      30              1.0000000000
       151        31  DCM       C               4.1526874709       -6.7848072875        8.9423697719  CLST      31              1.0000000000
       152        31  DCM       H1              3.7004413583       -6.8658019794        7.9316409523  CLST      31              1.0000000000
       153        31  DCM       H2              5.1338289625       -6.2668567268        8.8970158327  CLST      31              1.0000000000
       154        31  DCM       CL1             3.0526004904       -5.8604244375       10.0070929199  CLST      31              1.0000000000
       155        31  DCM       CL2             4.3904834909       -8.4293558046        9.5990277833  CLST      31              1.0000000000
       156        32  DCM       C              -3.5931507637       -9.1858272099        0.1575928864  CLST      32              1.0000000000
       157        32  DCM       H1             -3.8839954726       -9.1784483757        1.2298215778  CLST      32              1.0000000000
       158        32  DCM       H2             -2.5207426647       -9.4502445553        0.0339951850  CLST      32              1.0000000000
       159        32  DCM       CL1            -4.5842543982      -10.3834055136       -0.7238264815  CLST      32              1.0000000000
       160        32  DCM       CL2            -3.8610204125       -7.5594004169       -0.5291245169  CLST      32              1.0000000000
       161        33  DCM       C              11.9832777010       -7.6869294817       -0.4630674990  CLST      33              1.0000000000
       162        33  DCM       H1             12.0598097810       -6.6641698986       -0.0361579487  CLST      33              1.0000000000
       163        33  DCM       H2             12.7586764348       -8.3567463535       -0.0362575653  CLST      33              1.0000000000
       164        33  DCM       CL1            10.3652420403       -8.3520738986       -0.0933009411  CLST      33              1.0000000000
       165        33  DCM       CL2            12.2088841056       -7.5954318094       -2.2339062984  CLST      33              1.0000000000
       166        34  DCM       C              -5.2703276617        3.8915310646        5.0697492313  CLST      34              1.0000000000
       167        34  DCM       H1             -6.2894450494        3.5179977238        4.8375977484  CLST      34              1.0000000000
       168        34  DCM       H2             -4.4981816984        3.2909856670        4.5445876564  CLST      34              1.0000000000
       169        34  DCM       CL1            -5.1438348496        5.5928590767        4.5393789633  CLST      34              1.0000000000
       170        34  DCM       CL2            -4.9976206370        3.7767180649        6.8328357831  CLST      34              1.0000000000
       171        35  DCM       C               5.9119721606        9.2635290609        0.2291748742  CLST      35              1.0000000000
       172        35  DCM       H1              6.0633430941       10.0419055425       -0.5482973822  CLST      35              1.0000000000
       173        35  DCM       H2              6.4682471626        9.5163845638        1.1551668657  CLST      35              1.0000000000
       174        35  DCM       CL1             6.5050825361        7.6952585209       -0.3915361396  CLST      35              1.0000000000
       175        35  DCM       CL2             4.1690191468        9.1488889544        0.6124743912  CLST      35              1.0000000000
       176        36  DCM       C              -0.7884897137        8.1098981205        3.9836111179  CLST      36              1.0000000000
       177        36  DCM       H1             -0.4758676652        9.1573594353        3.7876403059  CLST      36              1.0000000000
       178        36  DCM       H2             -0.1849330706        7.6609210303        4.7988918479  CLST      36              1.0000000000
       179        36  DCM       CL1            -0.5603552344        7.1358320488        2.5031325783  CLST      36              1.0000000000
       180        36  DCM       CL2            -2.5066071498        8.1021358181        4.4691883332  CLST      36              1.0000000000
       181        37  DCM       C              -4.8278155120       10.3384570597       -0.7856135381  CLST      37              1.0000000000
       182        37  DCM       H1             -5.6281079468       10.9038775308       -1.3082428565  CLST      37              1.0000000000
       183        37  DCM       H2             -5.0834614998        9.2602566597       -0.7212282034  CLST      37              1.0000000000
       184        37  DCM       CL1            -3.2999782409       10.5162181620       -1.6949089157  CLST      37              1.0000000000
       185        37  DCM       CL2            -4.6297097315       10.9938772034        0.8654352882  CLST      37              1.0000000000
       186        38  DCM       C              -0.0430617688       -4.0764980642       -1.6411069426  CLST      38              1.0000000000
       187        38  DCM       H1             -0.1916341931       -4.9976296886       -1.0381855713  CLST      38              1.0000000000
       188        38  DCM       H2              0.1960614601       -4.3257670817       -2.6979455530  CLST      38              1.0000000000
       189        38  DCM       CL1            -1.5386219235       -3.0983534138       -1.5944853689  CLST      38              1.0000000000
       190        38  DCM       CL2             1.3091565503       -3.1390814625       -0.9465572527  CLST      38              1.0000000000
       191        39  DCM       C               6.2657382795       -4.9322599329        4.8295861302  CLST      39              1.0000000000
       192        39  DCM       H1              5.4625219838       -4.1808722354        4.9819002649  CLST      39              1.0000000000
       193        39  DCM       H2              6.3544320492       -5.2097389070        3.7604745101  CLST      39              1.0000000000
       194        39  DCM       CL1             7.8234508221       -4.2417327037        5.3794100061  CLST      39              1.0000000000
       195        39  DCM       CL2             5.8895729326       -6.4046049960        5.7737314439  CLST      39              1.0000000000
       196        40  DCM       C               2.9181484165        0.4092271647       -1.3803216209  CLST      40              1.0000000000
       197        40  DCM       H1              3.2831616886        1.1979931213       -2.0725939571  CLST      40              1.0000000000
       198        40  DCM       H2              2.9445610957       -0.5891384737       -1.8632114703  CLST      40              1.0000000000
       199        40  DCM       CL1             3.9623995292        0.3772199373        0.0674257042  CLST      40              1.0000000000
       200        40  DCM       CL2             1.2381417478        0.7856473933       -0.9021881075  CLST      40              1.0000000000
       201        41  DCM       C              -1.8162416155        3.5056816914       -8.6300294743  CLST      41              1.0000000000
       202        41  DCM       H1             -0.8540455763        3.3720986368       -9.1662361987  CLST      41              1.0000000000
       203        41  DCM       H2             -2.4653834789        2.6140505899       -8.7568388599  CLST      41              1.0000000000
       204        41  DCM       CL1            -1.4788882105        3.7419916405       -6.8920769051  CLST      41              1.0000000000
       205        41  DCM       CL2            -2.6562724564        4.9430105660       -9.2811921608  CLST      41              1.0000000000
       206        42  DCM       C              -1.1902138827       -3.9094364502        2.0463776615  CLST      42              1.0000000000
       207        42  DCM       H1             -1.9341806925       -3.0939566038        2.1267974627  CLST      42              1.0000000000
       208        42  DCM       H2             -0.3813332488       -3.6426214929        1.3379770239  CLST      42              1.0000000000
       209        42  DCM       CL1            -0.4730647841       -4.2049750421        3.6524720537  CLST      42              1.0000000000
       210        42  DCM       CL2            -2.0139744377       -5.3855214639        1.4734009365  CLST      42              1.0000000000
       211        43  DCM       C               5.4526672064       -1.9503137302        8.5895924154  CLST      43              1.0000000000
       212        43  DCM       H1              6.1283952108       -1.1232999454        8.8889709322  CLST      43              1.0000000000
       213        43  DCM       H2              5.0796081441       -1.8084174230        7.5537748297  CLST      43              1.0000000000
       214        43  DCM       CL1             6.3515828484       -3.4928552155        8.6647043961  CLST      43              1.0000000000
       215        43  DCM       CL2             4.0594996830       -2.0032544995        9.7114614270  CLST      43              1.0000000000
       216        44  DCM       C              -1.2991508522       -0.9324843564       -8.1407158226  CLST      44              1.0000000000
       217        44  DCM       H1             -0.6222824847       -1.7613120103       -8.4385352840  CLST      44              1.0000000000
       218        44  DCM       H2             -1.9607319768       -1.2390063647       -7.3029741886  CLST      44              1.0000000000
       219        44  DCM       CL1            -0.3145412624        0.4637612559       -7.6182179268  CLST      44              1.0000000000
       220        44  DCM       CL2            -2.3076732715       -0.4693882994       -9.5413845931  CLST      44              1.0000000000
       221        45  DCM       C               9.0320450786        4.1224099658        2.9707458770  CLST      45              1.0000000000
       222        45  DCM       H1              9.1182915485        3.1595019929        2.4253240850  CLST      45              1.0000000000
       223        45  DCM       H2              8.5516341406        3.9736033171        3.9609632978  CLST      45              1.0000000000
       224        45  DCM       CL1            10.6629407857        4.8123174334        3.2061782539  CLST      45              1.0000000000
       225        45  DCM       CL2             8.0409842551        5.2514776326        2.0055102908  CLST      45              1.0000000000
       226        46  DCM       C             -11.2081269046        4.5145184060       -3.9770386483  CLST      46              1.0000000000
       227        46  DCM       H1            -10.1638750052        4.2671223411       -3.6949177228  CLST      46              1.0000000000
       228        46  DCM       H2            -11.2324927763        5.2436782274       -4.8142931239  CLST      46              1.0000000000
       229        46  DCM       CL1           -12.0396281445        3.0154762946       -4.4834065561  CLST      46              1.0000000000
       230        46  DCM       CL2           -12.0342797697        5.2258530852       -2.5595595154  CLST      46              1.0000000000
       231        47  DCM       C               1.0564616878       -1.3171612104       -4.0143058487  CLST      47              1.0000000000
       232        47  DCM       H1              0.4588047409       -0.7628040955       -3.2604099303  CLST      47              1.0000000000
       233        47  DCM       H2              1.7487789562       -2.0333959232       -3.5278041856  CLST      47              1.0000000000
       234        47  DCM       CL1            -0.0547214142       -2.2232963045       -5.0798510985  CLST      47              1.0000000000
       235        47  DCM       CL2             2.0236713798       -0.1578238149       -4.9700988496  CLST      47              1.0000000000
       236        48  DCM       C              -0.8200936652      -10.0807626932        3.1225698791  CLST      48              1.0000000000
       237        48  DCM       H1             -1.8667621047      -10.1078292324        3.4953339763  CLST      48              1.0000000000
       238        48  DCM       H2             -0.5733557598      -11.0086892550        2.5644229890  CLST      48              1.0000000000
       239        48  DCM       CL1            -0.6205096137       -8.6725975929        2.0399929219  CLST      48              1.0000000000
       240        48  DCM       CL2             0.2893210271       -9.9329376727        4.5140989580  CLST      48              1.0000000000
       241        49  DCM       C               8.4548417326       -3.8495102607       -1.3924086115  CLST      49              1.0000000000
       242        49  DCM       H1              8.6959045417       -2.7883860438       -1.1784986577  CLST      49              1.0000000000
       243        49  DCM       H2              7.7015643412       -4.2370248654       -0.6768616002  CLST      49              1.0000000000
       244        49  DCM       CL1             7.8119007599       -3.9787748400       -3.0546428575  CLST      49              1.0000000000
       245        49  DCM       CL2             9.9434107552       -4.8212077339       -1.2427932722  CLST      49              1.0000000000
       246        50  DCM       C               4.5263638905        2.2087985632        3.2015126319  CLST      50              1.0000000000
       247        50  DCM       H1              4.2792042272        1.1377915212        3.3495555035  CLST      50              1.0000000000
       248        50  DCM       H2              3.7167595232        2.7338600963        2.6548669059  CLST      50              1.0000000000
       249        50  DCM       CL1             4.7521366618        2.9835985102        4.7953592392  CLST      50              1.0000000000
       250        50  DCM       CL2             6.0270069633        2.3350982180        2.2443723810  CLST      50              1.0000000000
       251        51  DCM       C               8.1139204531       -0.4303221577        1.6268205916  CLST      51              1.0000000000
       252        51  DCM       H1              7.2731522821       -0.4373730005        2.3492817490  CLST      51              1.0000000000
       253        51  DCM       H2              8.7147888142        0.4974382790        1.7219038745  CLST      51              1.0000000000
       254        51  DCM       CL1             7.4375471747       -0.5185428822       -0.0217540704  CLST      51              1.0000000000
       255        51  DCM       CL2             9.1598752276       -1.8460074109        1.9378199357  CLST      51              1.0000000000
       256        52  DCM       C               0.1779303041      -14.7120087791       -7.2711256931  CLST      52              1.0000000000
       257        52  DCM       H1              0.6059759044      -15.5917342246       -7.7969549850  CLST      52              1.0000000000
       258        52  DCM       H2             -0.1565348748      -13.9388122046       -7.9946759004  CLST      52              1.0000000000
       259        52  DCM       CL1            -1.2243779383      -15.2430714617       -6.2970332075  CLST      52              1.0000000000
       260        52  DCM       CL2             1.4270046644      -14.0082233040       -6.2032390024  CLST      52              1.0000000000
       261        53  DCM       C              -9.7026480552       -1.3138098776       -1.7998932813  CLST      53              1.0000000000
       262        53  DCM       H1            -10.0841522012       -0.5930766735       -2.5537983533  CLST      53              1.0000000000
       263        53  DCM       H2             -9.8099756940       -0.9138115163       -0.7686266751  CLST      53              1.0000000000
       264        53  DCM       CL1           -10.6385641605       -2.8299332652       -1.9313590670  CLST      53              1.0000000000
       265        53  DCM       CL2            -7.9738414239       -1.6269159173       -2.1275533684  CLST      53              1.0000000000
       266        54  DCM       C              -3.9552310918        7.1760001944        1.3148083720  CLST      54              1.0000000000
       267        54  DCM       H1             -3.5370091415        6.4572519910        2.0526223939  CLST      54              1.0000000000
       268        54  DCM       H2             -3.9874369493        8.2014912023        1.7399259667  CLST      54              1.0000000000
       269        54  DCM       CL1            -5.6134158403        6.6658869607        0.8846463982  CLST      54              1.0000000000
       270        54  DCM       CL2            -2.9250886110        7.1923922580       -0.1468167270  CLST      54              1.0000000000
       271        55  DCM       C               3.1231183747        0.8055168784      -15.9036616603  CLST      55              1.0000000000
       272        55  DCM       H1              4.0413734559        1.4249561704      -15.9879507795  CLST      55              1.0000000000
       273        55  DCM       H2              3.3755587657       -0.2681427673      -15.7738472042  CLST      55              1.0000000000
       274        55  DCM       CL1             2.1787866095        1.3551493613      -14.4895125392  CLST      55              1.0000000000
       275        55  DCM       CL2             2.1517768281        0.9973792658      -17.3917006491  CLST      55              1.0000000000
       276        56  DCM       C               1.2843831413       -0.0566400158      -11.0193452288  CLST      56              1.0000000000
       277        56  DCM       H1              0.6645157828        0.6693658043      -10.4527019481  CLST      56              1.0000000000
       278        56  DCM       H2              2.0756805031        0.4619152241      -11.6009420120  CLST      56              1.0000000000
       279        56  DCM       CL1             2.0551396752       -1.1883068939       -9.8703033939  CLST      56              1.0000000000
       280        56  DCM       CL2             0.2305105682       -0.9599790465      -12.1445083066  CLST      56              1.0000000000
       281        57  DCM       C               4.7549575708       -3.8705661242        0.2470082205  CLST      57              1.0000000000
       282        57  DCM       H1              3.7320578428       -3.7592001837        0.6631845651  CLST      57              1.0000000000
       283        57  DCM       H2              4.9468254140       -4.9205126120       -0.0557686040  CLST      57              1.0000000000
       284        57  DCM       CL1             5.9434914309       -3.4012372668        1.4945093253  CLST      57              1.0000000000
       285        57  DCM       CL2             4.9220356445       -2.8133061242       -1.1822750063  CLST      57              1.0000000000
       286        58  DCM       C              -6.4915155985       -4.9555037446       -1.2421763382  CLST      58              1.0000000000
       287        58  DCM       H1             -6.2732092438       -3.9924892531       -1.7490912144  CLST      58              1.0000000000
       288        58  DCM       H2             -5.6785722489       -5.2252646511       -0.5375303901  CLST      58              1.0000000000
       289        58  DCM       CL1            -8.0230177574       -4.8054229770       -0.3340908637  CLST      58              1.0000000000
       290        58  DCM       CL2            -6.6423537831       -6.2398010297       -2.4747272603  CLST      58              1.0000000000
       291        59  DCM       C              11.4375022106        6.6170970337       -0.4332674957  CLST      59              1.0000000000
       292        59  DCM       H1             11.5601370104        6.1826848040        0.5809835934  CLST      59              1.0000000000
       293        59  DCM       H2             11.5410393626        7.7225677434       -0.4101020910  CLST      59              1.0000000000
       294        59  DCM       CL1            12.6912135488        5.9388223954       -1.5109340790  CLST      59              1.0000000000
       295        59  DCM       CL2             9.8133358226        6.1989717583       -1.0496384141  CLST      59              1.0000000000
       296        60  DCM       C              -9.9461768872       -2.2180946345        6.0012627795  CLST      60              1.0000000000
       297        60  DCM       H1            -10.8559200664       -1.6643823041        5.6878897446  CLST      60              1.0000000000
       298        60  DCM       H2             -9.5789426572       -1.8547801762        6.9838633588  CLST      60              1.0000000000
       299        60  DCM       CL1           -10.3383594488       -3.9564033212        6.1310161009  CLST      60              1.0000000000
       300        60  DCM       CL2            -8.6702928606       -1.9754850341        4.7752846138  CLST      60              1.0000000000
       301        61  DCM       C              -2.9068524098      -15.9702725804       -9.5694041246  CLST      61              1.0000000000
       302        61  DCM       H1             -3.2363079856      -16.1695411845       -8.5274583653  CLST      61              1.0000000000
       303        61  DCM       H2             -3.6671364973      -16.3143566006      -10.3022313862  CLST      61              1.0000000000
       304        61  DCM       CL1            -2.6563476553      -14.2117030706       -9.7729115615  CLST      61              1.0000000000
       305        61  DCM       CL2            -1.3735347698      -16.8393180034       -9.8702073825  CLST      61              1.0000000000
       306        62  DCM       C              -1.5785355469        3.4913051600       -0.4652847169  CLST      62              1.0000000000
       307        62  DCM       H1             -2.3004862660        3.6626354030       -1.2918951029  CLST      62              1.0000000000
       308        62  DCM       H2             -1.3098904625        2.4186292984       -0.3824381165  CLST      62              1.0000000000
       309        62  DCM       CL1            -0.0989614279        4.4404531437       -0.7762035473  CLST      62              1.0000000000
       310        62  DCM       CL2            -2.3110506696        4.0182491621        1.0746753816  CLST      62              1.0000000000
       311        63  DCM       C              -2.0393342834        1.3059657528        8.1494848162  CLST      63              1.0000000000
       312        63  DCM       H1             -2.8689258158        1.9835933192        8.4439728122  CLST      63              1.0000000000
       313        63  DCM       H2             -1.0587977510        1.7049428203        8.4857460458  CLST      63              1.0000000000
       314        63  DCM       CL1            -2.3024074919       -0.2992989803        8.8867585788  CLST      63              1.0000000000
       315        63  DCM       CL2            -2.0243637468        1.1459986191        6.3725798950  CLST      63              1.0000000000
       316        64  DCM       C               7.6297881314       -0.6573708676        5.3892912676  CLST      64              1.0000000000
       317        64  DCM       H1              7.6808646529       -0.8155875868        6.4869877795  CLST      64              1.0000000000
       318        64  DCM       H2              8.3586434086       -1.3060168834        4.8588847796  CLST      64              1.0000000000
       319        64  DCM       CL1             5.9798913880       -1.0493535341        4.8205564737  CLST      64              1.0000000000
       320        64  DCM       CL2             8.0072818762        1.0524269973        5.0260230611  CLST      64              1.0000000000
       321        65  DCM       C               4.3853360270       11.1520186708        4.0602678469  CLST      65              1.0000000000
       322        65  DCM       H1              3.8845865921       10.3896938381        3.4271799050  CLST      65              1.0000000000
       323        65  DCM       H2              3.7499997086       12.0557907873        4.1743548964  CLST      65              1.0000000000
       324        65  DCM       CL1             4.6969530880       10.4548294061        5.6759548262  CLST      65              1.0000000000
       325        65  DCM       CL2             5.9303362005       11.6184419368        3.2930737073  CLST      65              1.0000000000
       326        66  DCM       C               2.9606893650       -1.5730626921        3.0016461125  CLST      66              1.0000000000
       327        66  DCM       H1              3.8381459191       -1.3583690655        2.3574628129  CLST      66              1.0000000000
       328        66  DCM       H2              2.9562577701       -0.9282421175        3.9053504335  CLST      66              1.0000000000
       329        66  DCM       CL1             1.4627585257       -1.2848935922        2.0782841324  CLST      66              1.0000000000
       330        66  DCM       CL2             3.0252400613       -3.2806722626        3.5069402418  CLST      66              1.0000000000
       331        67  DCM       C              -4.5543623368       14.0957302396       -1.5553505997  CLST      67              1.0000000000
       332        67  DCM       H1             -4.1013508404       13.4343222942       -0.7872202962  CLST      67              1.0000000000
       333        67  DCM       H2             -4.4329174003       15.1649536411       -1.2814761878  CLST      67              1.0000000000
       334        67  DCM       CL1            -3.7506713033       13.7994275176       -3.1250732129  CLST      67              1.0000000000
       335        67  DCM       CL2            -6.2978410779       13.7226994664       -1.6860373869  CLST      67              1.0000000000
       336        68  DCM       C               2.7214085405       -7.3310839521        1.8348084388  CLST      68              1.0000000000
       337        68  DCM       H1              2.2519381758       -7.8185852194        2.7152986134  CLST      68              1.0000000000
       338        68  DCM       H2              2.7985019891       -8.0389977109        0.9829236750  CLST      68              1.0000000000
       339        68  DCM       CL1             1.7233621390       -5.9360288239        1.3400374181  CLST      68              1.0000000000
       340        68  DCM       CL2             4.3579586842       -6.7718922493        2.2808098887  CLST      68              1.0000000000
       341        69  DCM       C              -6.8007125873       -3.9479322719        7.8143983297  CLST      69              1.0000000000
       342        69  DCM       H1             -6.9849825305       -3.3424680442        6.9022897548  CLST      69              1.0000000000
       343        69  DCM       H2             -6.8692103425       -5.0367022948        7.5952738452  CLST      69              1.0000000000
       344        69  DCM       CL1            -5.1662791536       -3.5832880109        8.4359543440  CLST      69              1.0000000000
       345        69  DCM       CL2            -8.0230444341       -3.5302460417        9.0485348952  CLST      69              1.0000000000
       346        70  DCM       C               8.9394896816       -7.6096418630       -3.7850773626  CLST      70              1.0000000000
       347        70  DCM       H1              9.0391220145       -7.0965831702       -2.8057635110  CLST      70              1.0000000000
       348        70  DCM       H2              9.6883426699       -7.2288640867       -4.5112134991  CLST      70              1.0000000000
       349        70  DCM       CL1             9.1976012166       -9.3625216513       -3.5487627646  CLST      70              1.0000000000
       350        70  DCM       CL2             7.2982571995       -7.3205484552       -4.4318403466  CLST      70              1.0000000000
       351        71  DCM       C              -1.6168981101       -3.7033456320        9.5899026911  CLST      71              1.0000000000
       352        71  DCM       H1             -2.1795360802       -3.6138185193        8.6369518735  CLST      71              1.0000000000
       353        71  DCM       H2             -1.9100754509       -2.9046670011       10.3027425230  CLST      71              1.0000000000
       354        71  DCM       CL1             0.1308878930       -3.5647255330        9.2451183874  CLST      71              1.0000000000
       355        71  DCM       CL2            -1.9681615987       -5.2918070022       10.3292404043  CLST      71              1.0000000000
       356        72  DCM       C              -5.4341537770       -1.2239925149        0.9285644251  CLST      72              1.0000000000
       357        72  DCM       H1             -5.4302154849       -0.7593314391       -0.0825673396  CLST      72              1.0000000000
       358        72  DCM       H2             -4.9581515308       -0.5576451889        1.6824694826  CLST      72              1.0000000000
       359        72  DCM       CL1            -4.5337642074       -2.7658928380        0.8481042317  CLST      72              1.0000000000
       360        72  DCM       CL2            -7.1254460867       -1.5385615580        1.4159888434  CLST      72              1.0000000000
       361        73  DCM       C             -10.5674399424        2.4908812376        6.1983343027  CLST      73              1.0000000000
       362        73  DCM       H1            -10.7140348614        3.3494559147        6.8879325149  CLST      73              1.0000000000
       363        73  DCM       H2            -11.1364803921        2.6323873379        5.2547691181  CLST      73              1.0000000000
       364        73  DCM       CL1           -11.1355393784        0.9975846374        6.9998297319  CLST      73              1.0000000000
       365        73  DCM       CL2            -8.8275127458        2.3480675966        5.8126381336  CLST      73              1.0000000000
       366        74  DCM       C              14.5929490503       -4.7565612039       -2.0846554603  CLST      74              1.0000000000
       367        74  DCM       H1             14.0234969321       -5.1331221032       -2.9605362217  CLST      74              1.0000000000
       368        74  DCM       H2             15.3059944519       -3.9601353652       -2.3854622213  CLST      74              1.0000000000
       369        74  DCM       CL1            13.4453958920       -4.0860159782       -0.8903952727  CLST      74              1.0000000000
       370        74  DCM       CL2            15.5013869336       -6.1120638374       -1.3537090563  CLST      74              1.0000000000
       371        75  DCM       C               1.7272840649       -5.0689209226        6.5215626405  CLST      75              1.0000000000
       372        75  DCM       H1              1.4499548260       -5.6271800976        7.4387885625  CLST      75              1.0000000000
       373        75  DCM       H2              0.8831906327       -4.4416605486        6.1693131495  CLST      75              1.0000000000
       374        75  DCM       CL1             3.1206372001       -4.0124181477        6.8815790701  CLST      75              1.0000000000
       375        75  DCM       CL2             2.1640533920       -6.2376854211        5.2441311846  CLST      75              1.0000000000
       376        76  DCM       C               8.9438521428       -7.0785533433        3.1169378561  CLST      76              1.0000000000
       377        76  DCM       H1              8.8395085062       -6.7733968813        4.1793497171  CLST      76              1.0000000000
       378        76  DCM       H2              9.9308346478       -7.5507876047        2.9317518635  CLST      76              1.0000000000
       379        76  DCM       CL1             7.6552177482       -8.2520040145        2.7220560028  CLST      76              1.0000000000
       380        76  DCM       CL2             8.7882938978       -5.6347924999        2.0743995740  CLST      76              1.0000000000
       381        77  DCM       C               0.8077155817       10.4563812887        1.3715134045  CLST      77              1.0000000000
       382        77  DCM       H1              1.3368989679       10.7387671353        0.4371015987  CLST      77              1.0000000000
       383        77  DCM       H2              1.1675906458        9.4762960948        1.7491133278  CLST      77              1.0000000000
       384        77  DCM       CL1             1.1092712667       11.7041937335        2.6127934276  CLST      77              1.0000000000
       385        77  DCM       CL2            -0.9449115836       10.3451055594        1.0375539759  CLST      77              1.0000000000
       386        78  DCM       C              -5.6537802190        1.5454156492       -7.4280220559  CLST      78              1.0000000000
       387        78  DCM       H1             -6.3318991848        0.6724667315       -7.5382566887  CLST      78              1.0000000000
       388        78  DCM       H2             -6.0766067603        2.2918491441       -6.7244319147  CLST      78              1.0000000000
       389        78  DCM       CL1            -4.0787789746        0.9828094419       -6.7987883633  CLST      78              1.0000000000
       390        78  DCM       CL2            -5.4279307090        2.3155169693       -9.0251739691  CLST      78              1.0000000000
       391        79  DCM       C             -14.9918469788       -1.1649116780        4.5029465050  CLST      79              1.0000000000
       392        79  DCM       H1            -15.7797379254       -1.4068103622        5.2461975597  CLST      79              1.0000000000
       393        79  DCM       H2            -15.3577877088       -1.3302503902        3.4671474942  CLST      79              1.0000000000
       394        79  DCM       CL1           -14.5226420708        0.5506336022        4.6906023113  CLST      79              1.0000000000
       395        79  DCM       CL2           -13.5756570557       -2.2162277802        4.7954529693  CLST      79              1.0000000000
       396        80  DCM       C               3.3164912919       -3.2167816268      -12.7565003765  CLST      80              1.0000000000
       397        80  DCM       H1              3.4285550663       -3.8632228344      -13.6522725608  CLST      80              1.0000000000
       398        80  DCM       H2              2.2468351873       -3.0913261768      -12.4869158989  CLST      80              1.0000000000
       399        80  DCM       CL1             4.1749476013       -3.9704977917      -11.3817177650  CLST      80              1.0000000000
       400        80  DCM       CL2             4.0216992698       -1.6111087956      -13.1054952862  CLST      80              1.0000000000
       401        81  DCM       C              -5.3526945332        5.2898983713       -3.8865970576  CLST      81              1.0000000000
       402        81  DCM       H1             -6.4482871738        5.1485440339       -3.9852377614  CLST      81              1.0000000000
       403        81  DCM       H2             -5.0474620212        6.3122030059       -4.1939160767  CLST      81              1.0000000000
       404        81  DCM       CL1            -4.8802035371        5.0326819998       -2.1850260146  CLST      81              1.0000000000
       405        81  DCM       CL2            -4.5309625967        4.0920646219       -4.9230122140  CLST      81              1.0000000000
       406        82  DCM       C              -1.7243676403        1.3787102707       -4.0489787683  CLST      82              1.0000000000
       407        82  DCM       H1             -1.5111397225        0.6377083844       -4.8480800729  CLST      82              1.0000000000
       408        82  DCM       H2             -2.5539134077        2.0553096239       -4.3429849666  CLST      82              1.0000000000
       409        82  DCM       CL1            -2.1847308600        0.5101396712       -2.5562157471  CLST      82              1.0000000000
       410        82  DCM       CL2            -0.2567456763        2.3546509668       -3.7563079158  CLST      82              1.0000000000
       411        83  DCM       C              -1.9058207567        6.7893465448       -5.1494907559  CLST      83              1.0000000000
       412        83  DCM       H1             -0.9295521677        6.9386333978       -5.6615216190  CLST      83              1.0000000000
       413        83  DCM       H2             -2.6332637324        6.2816174854       -5.8172328182  CLST      83              1.0000000000
       414        83  DCM       CL1            -1.6534645251        5.7773756826       -3.6980053899  CLST      83              1.0000000000
       415        83  DCM       CL2            -2.5683825947        8.3791721694       -4.6691695650  CLST      83              1.0000000000
       416        84  DCM       C               4.1519961357       -5.8311665692       -3.2113427122  CLST      84              1.0000000000
       417        84  DCM       H1              5.0988906891       -5.4128111071       -2.8091038923  CLST      84              1.0000000000
       418        84  DCM       H2              4.3548916447       -6.6178725750       -3.9684503060  CLST      84              1.0000000000
       419        84  DCM       CL1             3.2115114856       -6.5449477491       -1.8699439223  CLST      84              1.0000000000
       420        84  DCM       CL2             3.2113971219       -4.5174487488       -3.9754176243  CLST      84              1.0000000000
       421        85  DCM       C               6.3292216311        6.8444603258        5.0334853759  CLST      85              1.0000000000
       422        85  DCM       H1              5.8007830406        5.9149505862        4.7334420002  CLST      85              1.0000000000
       423        85  DCM       H2              5.8138802636        7.3462271738        5.8795252587  CLST      85              1.0000000000
       424        85  DCM       CL1             7.9938208928        6.4332115826        5.5343534634  CLST      85              1.0000000000
       425        85  DCM       CL2             6.3698219463        7.9603984714        3.6403217268  CLST      85              1.0000000000
       426        86  DCM       C              -7.1196571852        1.9064549124       -3.1249593056  CLST      86              1.0000000000
       427        86  DCM       H1             -7.7581655016        1.3162833031       -2.4338151327  CLST      86              1.0000000000
       428        86  DCM       H2             -6.7266508419        2.8166254034       -2.6244213465  CLST      86              1.0000000000
       429        86  DCM       CL1            -5.7480254662        0.8914593264       -3.6506272031  CLST      86              1.0000000000
       430        86  DCM       CL2            -8.0909364558        2.3984383408       -4.5387657233  CLST      86              1.0000000000
       431        87  DCM       C              -1.6354377039       -7.2177514385        5.4873977108  CLST      87              1.0000000000
       432        87  DCM       H1             -1.5623038227       -8.1967071400        6.0058707020  CLST      87              1.0000000000
       433        87  DCM       H2             -0.7566273679       -7.0464319915        4.8298379979  CLST      87              1.0000000000
       434        87  DCM       CL1            -3.1187238622       -7.2005957013        4.4914174331  CLST      87              1.0000000000
       435        87  DCM       CL2            -1.7099920099       -5.9207558739        6.7125055441  CLST      87              1.0000000000
       436        88  DCM       C               0.0373435497        8.5003782157       -2.2328260795  CLST      88              1.0000000000
       437        88  DCM       H1              0.3039543746        7.9761017083       -3.1741247841  CLST      88              1.0000000000
       438        88  DCM       H2             -1.0275295392        8.3313706783       -1.9698100678  CLST      88              1.0000000000
       439        88  DCM       CL1             1.0677550212        7.8791408659       -0.9139372757  CLST      88              1.0000000000
       440        88  DCM       CL2             0.3114908744       10.2520083057       -2.4488364079  CLST      88              1.0000000000
       441        89  DCM       C               2.5437333577        6.1167279068        4.8580894075  CLST      89              1.0000000000
       442        89  DCM       H1              3.0839438500        5.3597406879        4.2529671765  CLST      89              1.0000000000
       443        89  DCM       H2              1.4572265192        5.8914915881        4.8962130737  CLST      89              1.0000000000
       444        89  DCM       CL1             2.7793132022        7.7257492087        4.1178532903  CLST      89              1.0000000000
       445        89  DCM       CL2             3.2035985549        6.1018817097        6.5180606072  CLST      89              1.0000000000
       446        90  DCM       C               8.4259453477       10.2125377809        6.0850357163  CLST      90              1.0000000000
       447        90  DCM       H1              7.8442157475        9.9368086345        5.1809247818  CLST      90              1.0000000000
       448        90  DCM       H2              8.4769855130       11.3153174605        6.2034832243  CLST      90              1.0000000000
       449        90  DCM       CL1             7.6360514467        9.5063653978        7.5254668676  CLST      90              1.0000000000
       450        90  DCM       CL2            10.0845718934        9.5653265718        5.9283277682  CLST      90              1.0000000000
       451        91  DCM       C               1.4025220519       -0.5662714154        7.1775972592  CLST      91              1.0000000000
       452        91  DCM       H1              1.5426484417       -1.2456212031        8.0441560922  CLST      91              1.0000000000
       453        91  DCM       H2              0.7571760719        0.2959461007        7.4432291538  CLST      91              1.0000000000
       454        91  DCM       CL1             2.9977520556        0.0479539298        6.6553816545  CLST      91              1.0000000000
       455        91  DCM       CL2             0.6333550053       -1.4748912808        5.8447112924  CLST      91              1.0000000000
       456        92  DCM       C              -6.3569654863        2.5891356989        0.4270603549  CLST      92              1.0000000000
       457        92  DCM       H1             -7.2414157390        2.0901982066       -0.0338848326  CLST      92              1.0000000000
       458        92  DCM       H2             -6.4146456715        3.6979826470        0.3199697090  CLST      92              1.0000000000
       459        92  DCM       CL1            -6.3044977688        2.1750280661        2.1619959772  CLST      92              1.0000000000
       460        92  DCM       CL2            -4.8612835107        2.0016739570       -0.3612922085  CLST      92              1.0000000000
       461        93  DCM       C               3.4849220106        5.4973692470        0.2525901545  CLST      93              1.0000000000
       462        93  DCM       H1              2.4550869412        5.8019445456        0.5321304001  CLST      93              1.0000000000
       463        93  DCM       H2              3.9019944951        6.1689482493       -0.5272473177  CLST      93              1.0000000000
       464        93  DCM       CL1             3.4454342535        3.8268237804       -0.3723276926  CLST      93              1.0000000000
       465        93  DCM       CL2             4.5186398107        5.5665888869        1.7049753803  CLST      93              1.0000000000
       466        94  DCM       C              -1.0434795404        2.5860211651      -12.9380837426  CLST      94              1.0000000000
       467        94  DCM       H1             -1.3256669243        3.3070664122      -13.7345039241  CLST      94              1.0000000000
       468        94  DCM       H2             -0.6413046803        1.6482766898      -13.3745416352  CLST      94              1.0000000000
       469        94  DCM       CL1             0.2079822612        3.3258497831      -11.8979120765  CLST      94              1.0000000000
       470        94  DCM       CL2            -2.4905494201        2.1974785812      -11.9636636605  CLST      94              1.0000000000
       471        95  DCM       C               9.7824038517        2.7550440423       -4.7372933520  CLST      95              1.0000000000
       472        95  DCM       H1              8.8668195510        2.2302248856       -4.3874801899  CLST      95              1.0000000000
       473        95  DCM       H2              9.5298828116        3.5727993255       -5.4454681259  CLST      95              1.0000000000
       474        95  DCM       CL1            10.6300599207        3.4517228515       -3.3262160892  CLST      95              1.0000000000
       475        95  DCM       CL2            10.8518073905        1.5846942935       -5.5653300349  CLST      95              1.0000000000
