* CHARMM CGENFF SD/ABNR BEFORE MLPOT (MM ONLY)
*  DATE:     6/28/26      1:56:25      CREATED BY USER: boittier
*
       460  EXT
         1         1  DCM       C             -10.7458072032       10.6819564582        3.6506034388  CLST      1               1.0000000000
         2         1  DCM       H1            -11.8490661752       10.7522200113        3.5436656833  CLST      1               1.0000000000
         3         1  DCM       H2            -10.4029747541        9.6281789225        3.5753255709  CLST      1               1.0000000000
         4         1  DCM       CL1            -9.9733019992       11.6383560473        2.3521807565  CLST      1               1.0000000000
         5         1  DCM       CL2           -10.2723469075       11.3327164739        5.2470849619  CLST      1               1.0000000000
         6         2  DCM       C              10.6737087034        4.2194987361       -5.3428056256  CLST      2               1.0000000000
         7         2  DCM       H1             10.6099496585        5.2462480089       -5.7616332463  CLST      2               1.0000000000
         8         2  DCM       H2             10.1704595232        4.1594203628       -4.3548915575  CLST      2               1.0000000000
         9         2  DCM       CL1             9.8836139215        3.0789046788       -6.4684871313  CLST      2               1.0000000000
        10         2  DCM       CL2            12.3939247459        3.7804738269       -5.1462415043  CLST      2               1.0000000000
        11         3  DCM       C             -10.6593153505        6.3065786104       -7.5727620212  CLST      3               1.0000000000
        12         3  DCM       H1            -10.6947711390        6.6276221105       -6.5153531884  CLST      3               1.0000000000
        13         3  DCM       H2            -11.5937474542        5.7841517803       -7.8677702013  CLST      3               1.0000000000
        14         3  DCM       CL1           -10.4382296239        7.7464593960       -8.6134040264  CLST      3               1.0000000000
        15         3  DCM       CL2            -9.2780649291        5.1946987962       -7.7979534692  CLST      3               1.0000000000
        16         4  DCM       C              -3.7670537726       -4.7538452399       -7.6839756881  CLST      4               1.0000000000
        17         4  DCM       H1             -3.3272173242       -4.5581387652       -8.6847061173  CLST      4               1.0000000000
        18         4  DCM       H2             -3.0124080854       -4.6101658752       -6.8816576971  CLST      4               1.0000000000
        19         4  DCM       CL1            -4.3608482314       -6.4395497966       -7.6287945882  CLST      4               1.0000000000
        20         4  DCM       CL2            -5.1260840274       -3.6242602537       -7.4139419076  CLST      4               1.0000000000
        21         5  DCM       C               6.8935591372       -3.7429983590      -10.3534527905  CLST      5               1.0000000000
        22         5  DCM       H1              7.7016406977       -3.5833041734       -9.6098976912  CLST      5               1.0000000000
        23         5  DCM       H2              5.9191994518       -3.3757253680       -9.9671699508  CLST      5               1.0000000000
        24         5  DCM       CL1             7.2991498666       -2.8556696241      -11.8507438229  CLST      5               1.0000000000
        25         5  DCM       CL2             6.7632724727       -5.4922276407      -10.6958233970  CLST      5               1.0000000000
        26         6  DCM       C             -11.3835145601       -8.5400140016       -4.4451575431  CLST      6               1.0000000000
        27         6  DCM       H1            -10.3534230931       -8.9136712862       -4.6213324756  CLST      6               1.0000000000
        28         6  DCM       H2            -11.5307381381       -8.2817844842       -3.3765545214  CLST      6               1.0000000000
        29         6  DCM       CL1           -11.6561811097       -7.0786005983       -5.4372605534  CLST      6               1.0000000000
        30         6  DCM       CL2           -12.5554508374       -9.8116906472       -4.8970238958  CLST      6               1.0000000000
        31         7  DCM       C               7.7713509963        4.3308758979       -1.1284104410  CLST      7               1.0000000000
        32         7  DCM       H1              8.3392579613        5.1328451652       -1.6453650415  CLST      7               1.0000000000
        33         7  DCM       H2              7.4328215598        3.5561706325       -1.8462418398  CLST      7               1.0000000000
        34         7  DCM       CL1             8.8217093171        3.5668653607        0.0973311647  CLST      7               1.0000000000
        35         7  DCM       CL2             6.3391561164        5.0451834708       -0.3382260382  CLST      7               1.0000000000
        36         8  DCM       C               7.6708256934        6.1050790454       -7.6453108289  CLST      8               1.0000000000
        37         8  DCM       H1              8.3165634705        5.8727268238       -6.7729970439  CLST      8               1.0000000000
        38         8  DCM       H2              8.1205114028        6.8999385373       -8.2746483363  CLST      8               1.0000000000
        39         8  DCM       CL1             7.4880628344        4.6348175164       -8.6378522854  CLST      8               1.0000000000
        40         8  DCM       CL2             6.0700638324        6.6487987370       -7.0642753599  CLST      8               1.0000000000
        41         9  DCM       C              -5.7519470090       -0.2158237449       -8.5358196188  CLST      9               1.0000000000
        42         9  DCM       H1             -6.1441008760       -0.3440575624       -7.5050343130  CLST      9               1.0000000000
        43         9  DCM       H2             -5.6191047396       -1.1965399147       -9.0387518338  CLST      9               1.0000000000
        44         9  DCM       CL1            -6.9041814876        0.7655022533       -9.4848778615  CLST      9               1.0000000000
        45         9  DCM       CL2            -4.1716248374        0.6131061656       -8.4588409455  CLST      9               1.0000000000
        46        10  DCM       C              -5.2442405174       -5.9236236841       -0.5096797825  CLST      10              1.0000000000
        47        10  DCM       H1             -4.4759916039       -5.5924811555       -1.2388333401  CLST      10              1.0000000000
        48        10  DCM       H2             -5.5923880296       -6.9537190532       -0.7351312393  CLST      10              1.0000000000
        49        10  DCM       CL1            -4.5337528027       -5.8881601110        1.1270348766  CLST      10              1.0000000000
        50        10  DCM       CL2            -6.6388652943       -4.8132694533       -0.5871096850  CLST      10              1.0000000000
        51        11  DCM       C              12.2515777205        4.2748201775       -0.8888414446  CLST      11              1.0000000000
        52        11  DCM       H1             11.8876298424        4.3247139940        0.1595381454  CLST      11              1.0000000000
        53        11  DCM       H2             13.3351373017        4.5105056366       -0.9484439363  CLST      11              1.0000000000
        54        11  DCM       CL1            11.9796560396        2.6257436723       -1.5227090810  CLST      11              1.0000000000
        55        11  DCM       CL2            11.3456936838        5.4589619676       -1.8744321870  CLST      11              1.0000000000
        56        12  DCM       C              10.3687640810       -9.0122573745        5.6233925114  CLST      12              1.0000000000
        57        12  DCM       H1             11.0971066293       -8.8147158608        4.8088506371  CLST      12              1.0000000000
        58        12  DCM       H2              9.5271924422       -8.2881646606        5.5909222920  CLST      12              1.0000000000
        59        12  DCM       CL1             9.7217292590      -10.6681025982        5.4365124407  CLST      12              1.0000000000
        60        12  DCM       CL2            11.2003372667       -8.8597258033        7.1977435027  CLST      12              1.0000000000
        61        13  DCM       C               5.2438887534        1.9595528879        1.4718174269  CLST      13              1.0000000000
        62        13  DCM       H1              4.5041367677        1.1323709847        1.4812005053  CLST      13              1.0000000000
        63        13  DCM       H2              5.4167022144        2.3271378173        0.4385177886  CLST      13              1.0000000000
        64        13  DCM       CL1             4.6267202138        3.3077499895        2.4684920797  CLST      13              1.0000000000
        65        13  DCM       CL2             6.7930366371        1.3714767178        2.1382763075  CLST      13              1.0000000000
        66        14  DCM       C              -0.5759640734       -8.7481082786        5.1018870597  CLST      14              1.0000000000
        67        14  DCM       H1              0.4805479880       -8.5846941300        5.4012939207  CLST      14              1.0000000000
        68        14  DCM       H2             -0.9272847745       -7.9347691022        4.4327377079  CLST      14              1.0000000000
        69        14  DCM       CL1            -0.7062983560      -10.3098303853        4.2418614677  CLST      14              1.0000000000
        70        14  DCM       CL2            -1.5956084125       -8.7791744465        6.5698826403  CLST      14              1.0000000000
        71        15  DCM       C              -3.8601509373        4.3452620662       -9.7743818155  CLST      15              1.0000000000
        72        15  DCM       H1             -4.1124033980        4.5998739358      -10.8258473193  CLST      15              1.0000000000
        73        15  DCM       H2             -3.3073931033        3.3836094633       -9.7183514445  CLST      15              1.0000000000
        74        15  DCM       CL1            -2.8433102967        5.6450595401       -9.0880602567  CLST      15              1.0000000000
        75        15  DCM       CL2            -5.3724210051        4.2057650045       -8.8337474258  CLST      15              1.0000000000
        76        16  DCM       C               5.1734109772       -1.8178470290        2.8691398222  CLST      16              1.0000000000
        77        16  DCM       H1              5.3609765583       -2.8511545633        3.2274698323  CLST      16              1.0000000000
        78        16  DCM       H2              6.0195775509       -1.1537120011        3.1414763043  CLST      16              1.0000000000
        79        16  DCM       CL1             4.9897434928       -1.8364926348        1.0908490911  CLST      16              1.0000000000
        80        16  DCM       CL2             3.6783059006       -1.1982164359        3.6271655345  CLST      16              1.0000000000
        81        17  DCM       C               9.1242286098        9.7276300146       -7.4097670940  CLST      17              1.0000000000
        82        17  DCM       H1              8.2180824165        9.2257467030       -7.8088960021  CLST      17              1.0000000000
        83        17  DCM       H2              9.6318201875       10.3195656061       -8.2010213836  CLST      17              1.0000000000
        84        17  DCM       CL1             8.6408737203       10.8200974035       -6.0805172445  CLST      17              1.0000000000
        85        17  DCM       CL2            10.2578481484        8.4898926161       -6.7940221845  CLST      17              1.0000000000
        86        18  DCM       C              -2.5868129530       -3.6382861882        3.2167327244  CLST      18              1.0000000000
        87        18  DCM       H1             -2.3988542961       -3.3956650170        2.1488793925  CLST      18              1.0000000000
        88        18  DCM       H2             -3.6713570762       -3.5843815343        3.4486042324  CLST      18              1.0000000000
        89        18  DCM       CL1            -1.9988674848       -5.2924192841        3.5503377726  CLST      18              1.0000000000
        90        18  DCM       CL2            -1.7063941608       -2.4717208464        4.2458409153  CLST      18              1.0000000000
        91        19  DCM       C               9.3947669369        3.2894038053        4.0331522052  CLST      19              1.0000000000
        92        19  DCM       H1              9.4329952959        3.3046616656        5.1422276682  CLST      19              1.0000000000
        93        19  DCM       H2              9.1275771334        2.2790295228        3.6607955308  CLST      19              1.0000000000
        94        19  DCM       CL1             8.1618306785        4.4555543191        3.4763044750  CLST      19              1.0000000000
        95        19  DCM       CL2            10.9965589411        3.7451142358        3.3843879864  CLST      19              1.0000000000
        96        20  DCM       C              -5.7050193060        5.6430670699        5.3907334983  CLST      20              1.0000000000
        97        20  DCM       H1             -4.6615984289        6.0174711839        5.4425324248  CLST      20              1.0000000000
        98        20  DCM       H2             -6.0418682642        5.5438956975        4.3367386909  CLST      20              1.0000000000
        99        20  DCM       CL1            -5.7799762167        4.0443431711        6.1846117704  CLST      20              1.0000000000
       100        20  DCM       CL2            -6.7765345167        6.7929305804        6.2412603212  CLST      20              1.0000000000
       101        21  DCM       C              -4.5172282758        0.8048636460        5.4050874321  CLST      21              1.0000000000
       102        21  DCM       H1             -4.6292211919        1.6357283853        4.6768652211  CLST      21              1.0000000000
       103        21  DCM       H2             -5.1663194633        0.9617035478        6.2919923743  CLST      21              1.0000000000
       104        21  DCM       CL1            -4.9790666227       -0.7273904860        4.6123003203  CLST      21              1.0000000000
       105        21  DCM       CL2            -2.8152125583        0.7245762971        5.9425272947  CLST      21              1.0000000000
       106        22  DCM       C             -12.0880624669      -10.8984403833       -1.2876125564  CLST      22              1.0000000000
       107        22  DCM       H1            -12.1493457500      -11.4792091198       -0.3435555335  CLST      22              1.0000000000
       108        22  DCM       H2            -12.4881702721      -11.4825858831       -2.1433669040  CLST      22              1.0000000000
       109        22  DCM       CL1           -13.0408144880       -9.3956815701       -1.1099347726  CLST      22              1.0000000000
       110        22  DCM       CL2           -10.3765124249      -10.4966576471       -1.6087073970  CLST      22              1.0000000000
       111        23  DCM       C              -6.7190281546       10.6407903501        4.1690572340  CLST      23              1.0000000000
       112        23  DCM       H1             -7.3871816571       11.4797918326        3.8913541700  CLST      23              1.0000000000
       113        23  DCM       H2             -5.6866167634       10.8098410921        3.7884858346  CLST      23              1.0000000000
       114        23  DCM       CL1            -6.6667582437       10.5040663196        5.9502516995  CLST      23              1.0000000000
       115        23  DCM       CL2            -7.3551308786        9.1264414731        3.4628460622  CLST      23              1.0000000000
       116        24  DCM       C              -7.9551505451       -6.5827266715       -7.7304861300  CLST      24              1.0000000000
       117        24  DCM       H1             -7.4244608393       -7.2621966278       -8.4303183426  CLST      24              1.0000000000
       118        24  DCM       H2             -7.3923479781       -5.6361045377       -7.5951519999  CLST      24              1.0000000000
       119        24  DCM       CL1            -9.5717572383       -6.2095146434       -8.3929038198  CLST      24              1.0000000000
       120        24  DCM       CL2            -8.1221464381       -7.3943639715       -6.1479929152  CLST      24              1.0000000000
       121        25  DCM       C              -0.7800168311        6.3771203288       -2.4055751913  CLST      25              1.0000000000
       122        25  DCM       H1             -1.1011233990        6.4941855476       -3.4617482810  CLST      25              1.0000000000
       123        25  DCM       H2              0.2008540370        6.8690582019       -2.2308134443  CLST      25              1.0000000000
       124        25  DCM       CL1            -2.0009263475        7.1267188792       -1.3385595066  CLST      25              1.0000000000
       125        25  DCM       CL2            -0.6364887243        4.6366600083       -2.0255516964  CLST      25              1.0000000000
       126        26  DCM       C               5.5934356509        1.7156241446       -7.5388973524  CLST      26              1.0000000000
       127        26  DCM       H1              6.2093005050        1.7571778350       -8.4619410071  CLST      26              1.0000000000
       128        26  DCM       H2              6.2347592783        1.7421274479       -6.6327282180  CLST      26              1.0000000000
       129        26  DCM       CL1             4.4893349660        3.1205198064       -7.5152523550  CLST      26              1.0000000000
       130        26  DCM       CL2             4.6433568058        0.2012720683       -7.5400086713  CLST      26              1.0000000000
       131        27  DCM       C              -4.4976120577       -7.5545095588        4.9981781981  CLST      27              1.0000000000
       132        27  DCM       H1             -3.7065174132       -6.8362004673        5.2997784327  CLST      27              1.0000000000
       133        27  DCM       H2             -4.7804749418       -8.2068969413        5.8492414147  CLST      27              1.0000000000
       134        27  DCM       CL1            -5.9369236131       -6.6446638311        4.4704760210  CLST      27              1.0000000000
       135        27  DCM       CL2            -3.8975279189       -8.5651675780        3.6511699283  CLST      27              1.0000000000
       136        28  DCM       C               4.2927035579        7.6473933611        1.7024151475  CLST      28              1.0000000000
       137        28  DCM       H1              4.3780380716        8.7536545906        1.7630487151  CLST      28              1.0000000000
       138        28  DCM       H2              4.4534643102        7.2913430925        0.6632164501  CLST      28              1.0000000000
       139        28  DCM       CL1             5.5278707753        6.9135865378        2.7651098997  CLST      28              1.0000000000
       140        28  DCM       CL2             2.6591640418        7.1596578695        2.2441410513  CLST      28              1.0000000000
       141        29  DCM       C              10.5747809492       -5.1353863432      -10.6201143507  CLST      29              1.0000000000
       142        29  DCM       H1             11.5422541415       -5.6490235440      -10.4380096889  CLST      29              1.0000000000
       143        29  DCM       H2              9.7427628801       -5.6551397486      -10.0999890381  CLST      29              1.0000000000
       144        29  DCM       CL1            10.6838477374       -3.4568911602      -10.0147141048  CLST      29              1.0000000000
       145        29  DCM       CL2            10.2430662837       -5.1247524457      -12.3764395340  CLST      29              1.0000000000
       146        30  DCM       C               9.7320336917       -7.4064271605        1.5588358249  CLST      30              1.0000000000
       147        30  DCM       H1              8.6310794136       -7.3324454556        1.4305468623  CLST      30              1.0000000000
       148        30  DCM       H2             10.2647842553       -7.0159900695        0.6657647575  CLST      30              1.0000000000
       149        30  DCM       CL1            10.2185933349       -6.4537904066        2.9915862440  CLST      30              1.0000000000
       150        30  DCM       CL2            10.1743536707       -9.1217960533        1.7970623053  CLST      30              1.0000000000
       151        31  DCM       C              11.3942938468       -2.6984356527       -2.6454676654  CLST      31              1.0000000000
       152        31  DCM       H1             11.3791510763       -1.6486461367       -2.2841333177  CLST      31              1.0000000000
       153        31  DCM       H2             12.2013673530       -2.8496401810       -3.3936608148  CLST      31              1.0000000000
       154        31  DCM       CL1            11.6690361626       -3.7917084041       -1.2578177783  CLST      31              1.0000000000
       155        31  DCM       CL2             9.8218297025       -3.0720209009       -3.4062705974  CLST      31              1.0000000000
       156        32  DCM       C              10.8906954599       -0.2495360122       -6.1366123000  CLST      32              1.0000000000
       157        32  DCM       H1              9.8372325579       -0.0798589948       -5.8303239244  CLST      32              1.0000000000
       158        32  DCM       H2             11.1685474636        0.4105165941       -6.9859518997  CLST      32              1.0000000000
       159        32  DCM       CL1            11.9648045425        0.1052386643       -4.7526240100  CLST      32              1.0000000000
       160        32  DCM       CL2            11.0891923475       -1.9536927369       -6.6371495052  CLST      32              1.0000000000
       161        33  DCM       C              -8.8739529043       -9.3622664470        4.9297176315  CLST      33              1.0000000000
       162        33  DCM       H1             -9.9418218376       -9.3482393416        5.2299366294  CLST      33              1.0000000000
       163        33  DCM       H2             -8.6797474487       -8.6188737610        4.1300268299  CLST      33              1.0000000000
       164        33  DCM       CL1            -7.8621301734       -8.9663597553        6.3450723214  CLST      33              1.0000000000
       165        33  DCM       CL2            -8.4577170255      -10.9933041338        4.3339668205  CLST      33              1.0000000000
       166        34  DCM       C               9.8545587144        6.9659705118        5.4921389821  CLST      34              1.0000000000
       167        34  DCM       H1             10.2668455910        6.3791418906        4.6444966938  CLST      34              1.0000000000
       168        34  DCM       H2             10.6227248094        7.6456894273        5.9174552820  CLST      34              1.0000000000
       169        34  DCM       CL1             8.4758968638        7.9402243504        4.9046738429  CLST      34              1.0000000000
       170        34  DCM       CL2             9.3004570048        5.8410505953        6.7674269609  CLST      34              1.0000000000
       171        35  DCM       C               5.2975774774      -10.9117843352        7.4765414244  CLST      35              1.0000000000
       172        35  DCM       H1              4.3645348392      -10.6419039172        6.9395056507  CLST      35              1.0000000000
       173        35  DCM       H2              5.6871670345      -11.8932518279        7.1333641607  CLST      35              1.0000000000
       174        35  DCM       CL1             6.5286134623       -9.6538266584        7.1662900565  CLST      35              1.0000000000
       175        35  DCM       CL2             4.9510909932      -11.0018231934        9.2279736249  CLST      35              1.0000000000
       176        36  DCM       C              -0.8903889372        5.8917217495        3.2942811583  CLST      36              1.0000000000
       177        36  DCM       H1             -1.2027048369        6.9534621713        3.1844265977  CLST      36              1.0000000000
       178        36  DCM       H2              0.0735522139        5.8163761230        3.8396527047  CLST      36              1.0000000000
       179        36  DCM       CL1            -2.1470087391        5.0038845201        4.2055523620  CLST      36              1.0000000000
       180        36  DCM       CL2            -0.7009621094        5.1750163489        1.6685690625  CLST      36              1.0000000000
       181        37  DCM       C               9.1705865723       -0.1882396452       -9.6886936904  CLST      37              1.0000000000
       182        37  DCM       H1              8.8693266056       -0.5763774331      -10.6845741652  CLST      37              1.0000000000
       183        37  DCM       H2             10.2100759070       -0.4908072293       -9.4408381290  CLST      37              1.0000000000
       184        37  DCM       CL1             9.0728276583        1.5954327787       -9.7070290037  CLST      37              1.0000000000
       185        37  DCM       CL2             8.0635546878       -0.8428899716       -8.4482266246  CLST      37              1.0000000000
       186        38  DCM       C             -10.0586073764        3.8358577200       -3.6040682684  CLST      38              1.0000000000
       187        38  DCM       H1             -9.2499805202        3.0832615171       -3.4754089668  CLST      38              1.0000000000
       188        38  DCM       H2            -10.6735862549        3.9197413673       -2.6850864486  CLST      38              1.0000000000
       189        38  DCM       CL1            -9.3186288240        5.4220793279       -3.9608235378  CLST      38              1.0000000000
       190        38  DCM       CL2           -11.0993703347        3.3367015746       -4.9689639157  CLST      38              1.0000000000
       191        39  DCM       C              -4.2125725321        4.3132772624       -2.3880858538  CLST      39              1.0000000000
       192        39  DCM       H1             -3.5183329799        4.9334815233       -2.9929291492  CLST      39              1.0000000000
       193        39  DCM       H2             -4.0866619396        4.5194421090       -1.3038963200  CLST      39              1.0000000000
       194        39  DCM       CL1            -5.8899373808        4.6988340344       -2.8651644576  CLST      39              1.0000000000
       195        39  DCM       CL2            -3.8692116044        2.5870361388       -2.7027041611  CLST      39              1.0000000000
       196        40  DCM       C              -7.5670051304        2.5411326242       -6.2707492494  CLST      40              1.0000000000
       197        40  DCM       H1             -8.1237812334        3.3539148649       -5.7608431254  CLST      40              1.0000000000
       198        40  DCM       H2             -7.5799967701        2.6838801098       -7.3717403468  CLST      40              1.0000000000
       199        40  DCM       CL1            -8.3219818898        0.9709056917       -5.8756390418  CLST      40              1.0000000000
       200        40  DCM       CL2            -5.8775635351        2.5584378825       -5.6993753183  CLST      40              1.0000000000
       201        41  DCM       C               4.6525883542       -5.6419258274        2.2519118375  CLST      41              1.0000000000
       202        41  DCM       H1              4.7457077679       -6.0980189544        3.2599192478  CLST      41              1.0000000000
       203        41  DCM       H2              4.1081733253       -4.6757491411        2.2979798890  CLST      41              1.0000000000
       204        41  DCM       CL1             6.2868456997       -5.3644837482        1.5834429615  CLST      41              1.0000000000
       205        41  DCM       CL2             3.7476539214       -6.7555259945        1.1889713838  CLST      41              1.0000000000
       206        42  DCM       C               7.4220077159        8.1522734287       -3.8952055102  CLST      42              1.0000000000
       207        42  DCM       H1              7.7509279649        9.0255836022       -3.2930788175  CLST      42              1.0000000000
       208        42  DCM       H2              7.1589493127        8.4569320152       -4.9298065419  CLST      42              1.0000000000
       209        42  DCM       CL1             8.7504710760        6.9605162887       -3.9608700660  CLST      42              1.0000000000
       210        42  DCM       CL2             5.9881278545        7.4164242046       -3.1242125777  CLST      42              1.0000000000
       211        43  DCM       C              -3.4549239992        8.8926881614        5.4134104306  CLST      43              1.0000000000
       212        43  DCM       H1             -3.5355173190        9.9978743168        5.4774944826  CLST      43              1.0000000000
       213        43  DCM       H2             -4.1869578077        8.4028630815        6.0904782585  CLST      43              1.0000000000
       214        43  DCM       CL1            -3.7785286548        8.3782678604        3.7322789848  CLST      43              1.0000000000
       215        43  DCM       CL2            -1.8040487733        8.4021424129        5.8903558706  CLST      43              1.0000000000
       216        44  DCM       C               5.7902671340        7.0847989618      -10.9259954725  CLST      44              1.0000000000
       217        44  DCM       H1              5.5130001861        6.3659506307      -10.1261918000  CLST      44              1.0000000000
       218        44  DCM       H2              4.9065919005        7.3504625587      -11.5437868738  CLST      44              1.0000000000
       219        44  DCM       CL1             6.4461522294        8.5714935671      -10.1803648254  CLST      44              1.0000000000
       220        44  DCM       CL2             7.0281296692        6.3346016718      -11.9745752606  CLST      44              1.0000000000
       221        45  DCM       C              -9.4130345781        5.0825648552      -11.5280431256  CLST      45              1.0000000000
       222        45  DCM       H1             -9.1596888477        6.0336545576      -11.0169655153  CLST      45              1.0000000000
       223        45  DCM       H2             -9.4060333859        5.2069032403      -12.6323442692  CLST      45              1.0000000000
       224        45  DCM       CL1            -8.2087437193        3.8414948834      -11.0766645359  CLST      45              1.0000000000
       225        45  DCM       CL2           -11.0424972477        4.5631610748      -11.0078709083  CLST      45              1.0000000000
       226        46  DCM       C             -10.8452536498      -10.7196962398        7.8575711148  CLST      46              1.0000000000
       227        46  DCM       H1             -9.7422533002      -10.7957031629        7.7567007357  CLST      46              1.0000000000
       228        46  DCM       H2            -11.1865412689      -11.1521291700        8.8220036825  CLST      46              1.0000000000
       229        46  DCM       CL1           -11.3162771838       -8.9957647864        7.7918093166  CLST      46              1.0000000000
       230        46  DCM       CL2           -11.6084226819      -11.6119716710        6.5097970413  CLST      46              1.0000000000
       231        47  DCM       C               5.3065074347        3.9134974400       -4.0481568413  CLST      47              1.0000000000
       232        47  DCM       H1              5.2879039574        4.4499958927       -3.0774428606  CLST      47              1.0000000000
       233        47  DCM       H2              4.5858982783        4.3589628355       -4.7649701940  CLST      47              1.0000000000
       234        47  DCM       CL1             4.8855168882        2.2015133565       -3.7718597460  CLST      47              1.0000000000
       235        47  DCM       CL2             6.9459418121        4.0204486269       -4.7407313995  CLST      47              1.0000000000
       236        48  DCM       C               2.1279386577       -8.4631180897        9.1150513450  CLST      48              1.0000000000
       237        48  DCM       H1              2.4641086027       -8.9981434547       10.0288685734  CLST      48              1.0000000000
       238        48  DCM       H2              1.2329171930       -7.8390543152        9.3209122238  CLST      48              1.0000000000
       239        48  DCM       CL1             3.4529687955       -7.4084573039        8.5424024592  CLST      48              1.0000000000
       240        48  DCM       CL2             1.7198266834       -9.6664067686        7.8578924249  CLST      48              1.0000000000
       241        49  DCM       C              -4.8705759622      -11.2535900176        5.9530286120  CLST      49              1.0000000000
       242        49  DCM       H1             -5.4869445819      -10.5902215379        5.3096882247  CLST      49              1.0000000000
       243        49  DCM       H2             -3.8546686006      -11.3918795603        5.5276896248  CLST      49              1.0000000000
       244        49  DCM       CL1            -4.7276209984      -10.5204144374        7.5775723421  CLST      49              1.0000000000
       245        49  DCM       CL2            -5.6800885270      -12.8419731817        6.0755168255  CLST      49              1.0000000000
       246        50  DCM       C              -4.7524885805        6.5218429908       -6.1139891029  CLST      50              1.0000000000
       247        50  DCM       H1             -4.3819282053        5.4767879391       -6.1424205679  CLST      50              1.0000000000
       248        50  DCM       H2             -4.4504140360        7.0771373078       -7.0270268698  CLST      50              1.0000000000
       249        50  DCM       CL1            -6.5333751017        6.4842594797       -6.0150870778  CLST      50              1.0000000000
       250        50  DCM       CL2            -4.0746965969        7.3505291322       -4.6837457118  CLST      50              1.0000000000
       251        51  DCM       C              10.5450144539        0.4019028339        1.6202551222  CLST      51              1.0000000000
       252        51  DCM       H1              9.4956866793        0.0734062340        1.4651497619  CLST      51              1.0000000000
       253        51  DCM       H2             10.6426105431        1.4995684193        1.4864000711  CLST      51              1.0000000000
       254        51  DCM       CL1            11.0489758734       -0.0342688460        3.2779959813  CLST      51              1.0000000000
       255        51  DCM       CL2            11.6011302433       -0.4201762884        0.4361805547  CLST      51              1.0000000000
       256        52  DCM       C               9.2950274969       -3.2603440239        1.4492976298  CLST      52              1.0000000000
       257        52  DCM       H1             10.3649273199       -2.9638238879        1.4444361223  CLST      52              1.0000000000
       258        52  DCM       H2              9.1817521947       -4.3496197031        1.2726534682  CLST      52              1.0000000000
       259        52  DCM       CL1             8.5852192761       -2.8497057799        3.0365778071  CLST      52              1.0000000000
       260        52  DCM       CL2             8.4341222452       -2.3842135917        0.1532919866  CLST      52              1.0000000000
       261        53  DCM       C              -9.9319622369       -6.6547133450       -1.0324604965  CLST      53              1.0000000000
       262        53  DCM       H1             -9.4238187140       -5.9038849870       -0.3914978046  CLST      53              1.0000000000
       263        53  DCM       H2            -10.2514159502       -7.5368634792       -0.4385613077  CLST      53              1.0000000000
       264        53  DCM       CL1            -8.7981382930       -7.1947340703       -2.3050683449  CLST      53              1.0000000000
       265        53  DCM       CL2           -11.3702154595       -5.8956892036       -1.7723278324  CLST      53              1.0000000000
       266        54  DCM       C               2.6591606966        4.7552672511       -0.4155546403  CLST      54              1.0000000000
       267        54  DCM       H1              1.6392969076        4.9670849866       -0.0333707590  CLST      54              1.0000000000
       268        54  DCM       H2              3.4263399199        4.9751338471        0.3556245315  CLST      54              1.0000000000
       269        54  DCM       CL1             2.9640849876        5.7771430494       -1.8486275567  CLST      54              1.0000000000
       270        54  DCM       CL2             2.7670601943        3.0294317583       -0.8622120873  CLST      54              1.0000000000
       271        55  DCM       C               1.7494994400       -5.0940256089        5.6988669515  CLST      55              1.0000000000
       272        55  DCM       H1              2.7207998878       -5.4755405807        6.0799048743  CLST      55              1.0000000000
       273        55  DCM       H2              1.7245528628       -3.9835634333        5.7052108473  CLST      55              1.0000000000
       274        55  DCM       CL1             1.5132424435       -5.6697463090        4.0233090927  CLST      55              1.0000000000
       275        55  DCM       CL2             0.4349487194       -5.7100081527        6.7416422583  CLST      55              1.0000000000
       276        56  DCM       C               0.5093919682       -9.6736508672        0.5717822027  CLST      56              1.0000000000
       277        56  DCM       H1              0.0905415467       -9.6178521749       -0.4554757241  CLST      56              1.0000000000
       278        56  DCM       H2              0.0341504996      -10.4897507216        1.1562450682  CLST      56              1.0000000000
       279        56  DCM       CL1             2.2638786169       -9.9914490051        0.4554249560  CLST      56              1.0000000000
       280        56  DCM       CL2             0.2179221820       -8.1163412653        1.4024342322  CLST      56              1.0000000000
       281        57  DCM       C               8.9155261282        7.3392636325        1.2375532450  CLST      57              1.0000000000
       282        57  DCM       H1              8.2544193769        6.4594205798        1.3770181178  CLST      57              1.0000000000
       283        57  DCM       H2              8.6496295074        8.1531647222        1.9451871630  CLST      57              1.0000000000
       284        57  DCM       CL1            10.6074897725        6.8444216872        1.5269753116  CLST      57              1.0000000000
       285        57  DCM       CL2             8.7349646516        7.9439347539       -0.4332546379  CLST      57              1.0000000000
       286        58  DCM       C              -8.1740535111        9.7189958970       -6.3436751738  CLST      58              1.0000000000
       287        58  DCM       H1             -8.0232274400        8.9896236340       -7.1662013606  CLST      58              1.0000000000
       288        58  DCM       H2             -8.6509700476       10.6505245594       -6.7172625643  CLST      58              1.0000000000
       289        58  DCM       CL1            -9.2291954754        8.9808167744       -5.1044838898  CLST      58              1.0000000000
       290        58  DCM       CL2            -6.5866841746       10.1238704396       -5.6280345933  CLST      58              1.0000000000
       291        59  DCM       C               6.8030746196       -9.6401810811        3.2693058716  CLST      59              1.0000000000
       292        59  DCM       H1              6.0070583906      -10.1655689675        3.8380252176  CLST      59              1.0000000000
       293        59  DCM       H2              7.7570803414      -10.2064748103        3.3061278168  CLST      59              1.0000000000
       294        59  DCM       CL1             6.2972175237       -9.4725757314        1.5634036173  CLST      59              1.0000000000
       295        59  DCM       CL2             7.0569650984       -8.0221149159        3.9835042041  CLST      59              1.0000000000
       296        60  DCM       C              -6.8456948298       -8.8649207903        1.6702137075  CLST      60              1.0000000000
       297        60  DCM       H1             -5.8728080880       -8.6155076015        1.2005141757  CLST      60              1.0000000000
       298        60  DCM       H2             -6.7056931764       -9.1914074813        2.7216831594  CLST      60              1.0000000000
       299        60  DCM       CL1            -7.8865600964       -7.4155533034        1.6437061771  CLST      60              1.0000000000
       300        60  DCM       CL2            -7.6201852799      -10.1832700635        0.7483034438  CLST      60              1.0000000000
       301        61  DCM       C               7.8466474352        2.7623480560        9.1212813883  CLST      61              1.0000000000
       302        61  DCM       H1              7.0688757416        3.3818542245        8.6274069089  CLST      61              1.0000000000
       303        61  DCM       H2              8.3698897004        3.3375957734        9.9140504770  CLST      61              1.0000000000
       304        61  DCM       CL1             7.0686046104        1.3310248924        9.8573305347  CLST      61              1.0000000000
       305        61  DCM       CL2             9.0414763731        2.2391456323        7.8985401447  CLST      61              1.0000000000
       306        62  DCM       C              -6.9456542269        8.2695376352       -2.3569809905  CLST      62              1.0000000000
       307        62  DCM       H1             -6.9619513668        9.3166969108       -2.7316582427  CLST      62              1.0000000000
       308        62  DCM       H2             -6.8827678612        7.5494533339       -3.1971430607  CLST      62              1.0000000000
       309        62  DCM       CL1            -5.5264781323        8.0597059183       -1.2907711322  CLST      62              1.0000000000
       310        62  DCM       CL2            -8.4445062846        7.9633861574       -1.4328325757  CLST      62              1.0000000000
       311        63  DCM       C               4.7968575001        1.7635914095        5.6251822616  CLST      63              1.0000000000
       312        63  DCM       H1              3.8423207911        2.2009462556        5.2637066278  CLST      63              1.0000000000
       313        63  DCM       H2              5.2237270066        1.0650224253        4.8756757194  CLST      63              1.0000000000
       314        63  DCM       CL1             5.9671165550        3.0816568240        5.9175944046  CLST      63              1.0000000000
       315        63  DCM       CL2             4.4919182535        0.8747700284        7.1448104480  CLST      63              1.0000000000
       316        64  DCM       C              -7.7137794058       -9.7177371992       10.1387310661  CLST      64              1.0000000000
       317        64  DCM       H1             -6.8953667723       -9.4899430174       10.8531727652  CLST      64              1.0000000000
       318        64  DCM       H2             -7.6383024386       -9.0812126482        9.2328113262  CLST      64              1.0000000000
       319        64  DCM       CL1            -7.6067733096      -11.4343259424        9.6508624094  CLST      64              1.0000000000
       320        64  DCM       CL2            -9.2853638392       -9.4094695521       10.9325020463  CLST      64              1.0000000000
       321        65  DCM       C              -3.0912097120       -9.0808306192       -0.3129702084  CLST      65              1.0000000000
       322        65  DCM       H1             -3.4158004327       -8.6063127530        0.6363601392  CLST      65              1.0000000000
       323        65  DCM       H2             -2.3682179723       -9.9006360591       -0.1202779225  CLST      65              1.0000000000
       324        65  DCM       CL1            -4.5159690720       -9.7592151698       -1.1504113742  CLST      65              1.0000000000
       325        65  DCM       CL2            -2.3153475629       -7.8449821128       -1.3458347010  CLST      65              1.0000000000
       326        66  DCM       C               3.0551649941       -9.2769486384        3.7901991142  CLST      66              1.0000000000
       327        66  DCM       H1              2.0310267991       -8.9360334258        3.5345798963  CLST      66              1.0000000000
       328        66  DCM       H2              3.7308173026       -9.1873342746        2.9150074640  CLST      66              1.0000000000
       329        66  DCM       CL1             3.6904707240       -8.2676580672        5.1170663953  CLST      66              1.0000000000
       330        66  DCM       CL2             2.9930700109      -10.9865375792        4.3041788266  CLST      66              1.0000000000
       331        67  DCM       C              -9.4362389417       -4.1252624885       -4.5244715171  CLST      67              1.0000000000
       332        67  DCM       H1             -9.2799399832       -5.2236865979       -4.4907363584  CLST      67              1.0000000000
       333        67  DCM       H2            -10.5108522245       -3.8824983416       -4.6655912449  CLST      67              1.0000000000
       334        67  DCM       CL1            -8.8748072296       -3.4109524372       -2.9865356192  CLST      67              1.0000000000
       335        67  DCM       CL2            -8.4974498018       -3.4406864588       -5.8823068922  CLST      67              1.0000000000
       336        68  DCM       C             -10.5850245462       -5.8170745344        3.7565593651  CLST      68              1.0000000000
       337        68  DCM       H1            -10.5874326579       -6.8634211051        3.3935220504  CLST      68              1.0000000000
       338        68  DCM       H2            -11.5755845156       -5.5346596978        4.1758699344  CLST      68              1.0000000000
       339        68  DCM       CL1            -9.3484347406       -5.6629169639        5.0348833545  CLST      68              1.0000000000
       340        68  DCM       CL2           -10.1958506620       -4.7327964550        2.3896688353  CLST      68              1.0000000000
       341        69  DCM       C              -5.5979139881       -5.6333378834       -4.1793429591  CLST      69              1.0000000000
       342        69  DCM       H1             -6.3240708769       -5.1863563893       -3.4683964767  CLST      69              1.0000000000
       343        69  DCM       H2             -5.9531453404       -5.5270109141       -5.2250968047  CLST      69              1.0000000000
       344        69  DCM       CL1            -4.0223584544       -4.8067349084       -4.0113573722  CLST      69              1.0000000000
       345        69  DCM       CL2            -5.4049778033       -7.3699502229       -3.8066141014  CLST      69              1.0000000000
       346        70  DCM       C              -6.8318292061        7.5535771904       -9.8290397017  CLST      70              1.0000000000
       347        70  DCM       H1             -7.7816021914        8.0784956993      -10.0620769454  CLST      70              1.0000000000
       348        70  DCM       H2             -7.0037121260        6.7070106754       -9.1306567306  CLST      70              1.0000000000
       349        70  DCM       CL1            -5.7001991465        8.7126293280       -9.0756504325  CLST      70              1.0000000000
       350        70  DCM       CL2            -6.1300808106        6.9248519663      -11.3475753008  CLST      70              1.0000000000
       351        71  DCM       C              -4.3288783585        5.5352311650        9.7945624408  CLST      71              1.0000000000
       352        71  DCM       H1             -3.8905379918        4.5220134022        9.9143380475  CLST      71              1.0000000000
       353        71  DCM       H2             -4.1147796559        6.1719485001       10.6793526909  CLST      71              1.0000000000
       354        71  DCM       CL1            -3.6245361805        6.3039700652        8.3426711177  CLST      71              1.0000000000
       355        71  DCM       CL2            -6.0999877178        5.3819236796        9.6048296007  CLST      71              1.0000000000
       356        72  DCM       C              -7.0372687162       -5.6664470721        8.1067107806  CLST      72              1.0000000000
       357        72  DCM       H1             -7.1265346453       -5.5522838916        7.0062814689  CLST      72              1.0000000000
       358        72  DCM       H2             -6.8045468677       -4.6934309246        8.5892618787  CLST      72              1.0000000000
       359        72  DCM       CL1            -8.5873870343       -6.2797119875        8.7513797363  CLST      72              1.0000000000
       360        72  DCM       CL2            -5.7231761189       -6.8247835287        8.4655808749  CLST      72              1.0000000000
       361        73  DCM       C              -7.2865872811        1.3561983637       -1.9612632870  CLST      73              1.0000000000
       362        73  DCM       H1             -7.0135514782        1.8864578432       -2.8993008715  CLST      73              1.0000000000
       363        73  DCM       H2             -6.4232085093        0.7816428397       -1.5655646816  CLST      73              1.0000000000
       364        73  DCM       CL1            -7.7961427892        2.5564458117       -0.7391333776  CLST      73              1.0000000000
       365        73  DCM       CL2            -8.6365143083        0.2358946541       -2.3016167099  CLST      73              1.0000000000
       366        74  DCM       C              -8.1483906271       -2.3289451152        5.9916413968  CLST      74              1.0000000000
       367        74  DCM       H1             -7.4486095862       -1.4723678350        6.0772858544  CLST      74              1.0000000000
       368        74  DCM       H2             -7.6095957912       -3.2542941046        5.6970514031  CLST      74              1.0000000000
       369        74  DCM       CL1            -8.9376848631       -2.5959009826        7.5719695844  CLST      74              1.0000000000
       370        74  DCM       CL2            -9.3835538038       -1.9518256459        4.7555975086  CLST      74              1.0000000000
       371        75  DCM       C              -3.9153014650       -2.7908467121        7.4912068689  CLST      75              1.0000000000
       372        75  DCM       H1             -3.2285212285       -2.0832374891        6.9802124712  CLST      75              1.0000000000
       373        75  DCM       H2             -3.3872105669       -3.3569012454        8.2872977552  CLST      75              1.0000000000
       374        75  DCM       CL1            -5.2606990980       -1.8702229687        8.2233906018  CLST      75              1.0000000000
       375        75  DCM       CL2            -4.5586276901       -3.9425077129        6.2874865465  CLST      75              1.0000000000
       376        76  DCM       C               5.6296722367       -1.4825514223       -4.0755252953  CLST      76              1.0000000000
       377        76  DCM       H1              5.1060700114       -0.7021108350       -3.4848651676  CLST      76              1.0000000000
       378        76  DCM       H2              4.9472068738       -1.9427929237       -4.8210144790  CLST      76              1.0000000000
       379        76  DCM       CL1             7.0090239730       -0.7379677967       -4.9336652920  CLST      76              1.0000000000
       380        76  DCM       CL2             6.2219934928       -2.7482327638       -2.9610191763  CLST      76              1.0000000000
       381        77  DCM       C             -12.6328472285       -8.8714938348        2.4281359326  CLST      77              1.0000000000
       382        77  DCM       H1            -12.9006404009       -7.8576860343        2.0616845051  CLST      77              1.0000000000
       383        77  DCM       H2            -13.3297242693       -9.6367593762        2.0256258049  CLST      77              1.0000000000
       384        77  DCM       CL1           -12.7136493058       -8.8908266742        4.2129502352  CLST      77              1.0000000000
       385        77  DCM       CL2           -10.9724365669       -9.2610617853        1.8976886154  CLST      77              1.0000000000
       386        78  DCM       C              -6.6829529651      -10.6853835427       -9.3017641869  CLST      78              1.0000000000
       387        78  DCM       H1             -7.5039794967      -11.3710427538       -9.0024973754  CLST      78              1.0000000000
       388        78  DCM       H2             -5.8685585666      -11.2388490566       -9.8151064753  CLST      78              1.0000000000
       389        78  DCM       CL1            -7.3344426046       -9.4459590676      -10.4137398144  CLST      78              1.0000000000
       390        78  DCM       CL2            -6.0191927027       -9.8987823087       -7.8398472874  CLST      78              1.0000000000
       391        79  DCM       C              -6.8368383094       -2.1694559274        1.8330935161  CLST      79              1.0000000000
       392        79  DCM       H1             -7.5417466537       -2.3993391206        1.0068019840  CLST      79              1.0000000000
       393        79  DCM       H2             -7.1906962171       -1.3035817284        2.4319328133  CLST      79              1.0000000000
       394        79  DCM       CL1            -6.7059776310       -3.5962037585        2.9003469362  CLST      79              1.0000000000
       395        79  DCM       CL2            -5.2314309962       -1.7869514620        1.1449941583  CLST      79              1.0000000000
       396        80  DCM       C               1.3035380526        4.9093282348       -8.6883954045  CLST      80              1.0000000000
       397        80  DCM       H1              1.6366469050        3.9559997644       -8.2286523950  CLST      80              1.0000000000
       398        80  DCM       H2              0.5964526713        5.4470650886       -8.0206231725  CLST      80              1.0000000000
       399        80  DCM       CL1             2.7322130484        5.9444702005       -8.9811425572  CLST      80              1.0000000000
       400        80  DCM       CL2             0.4831828130        4.5523732570      -10.2363802895  CLST      80              1.0000000000
       401        81  DCM       C              -8.8477779126        1.3760730980        6.6143154239  CLST      81              1.0000000000
       402        81  DCM       H1             -9.5970096508        0.5561295891        6.6286884111  CLST      81              1.0000000000
       403        81  DCM       H2             -9.3240730065        2.3575762081        6.8214601025  CLST      81              1.0000000000
       404        81  DCM       CL1            -7.6140192601        1.0543392673        7.8674116098  CLST      81              1.0000000000
       405        81  DCM       CL2            -8.0760070583        1.4320591104        5.0017571748  CLST      81              1.0000000000
       406        82  DCM       C              10.5207738928        5.9801884830      -10.4298269745  CLST      82              1.0000000000
       407        82  DCM       H1             11.3008677096        5.8157199282      -11.2027256574  CLST      82              1.0000000000
       408        82  DCM       H2              9.6132349594        5.3773280118      -10.6450415589  CLST      82              1.0000000000
       409        82  DCM       CL1            11.1724868927        5.5020532633       -8.8358356794  CLST      82              1.0000000000
       410        82  DCM       CL2            10.0809962611        7.7130103923      -10.4075669473  CLST      82              1.0000000000
       411        83  DCM       C               7.8228691548       -4.0363812271       -6.2307941716  CLST      83              1.0000000000
       412        83  DCM       H1              7.7550955676       -4.4546652722       -5.2042287443  CLST      83              1.0000000000
       413        83  DCM       H2              8.3204995496       -3.0441858916       -6.2239000019  CLST      83              1.0000000000
       414        83  DCM       CL1             6.1729849603       -3.8554141769       -6.8940985807  CLST      83              1.0000000000
       415        83  DCM       CL2             8.7730092892       -5.1513479500       -7.2538303775  CLST      83              1.0000000000
       416        84  DCM       C              -2.3721137800        2.9637670433       -6.3990846971  CLST      84              1.0000000000
       417        84  DCM       H1             -2.5082827570        2.1416455058       -5.6648712894  CLST      84              1.0000000000
       418        84  DCM       H2             -3.3214767611        3.1854873952       -6.9290418061  CLST      84              1.0000000000
       419        84  DCM       CL1            -1.8330179224        4.4361807955       -5.5450412873  CLST      84              1.0000000000
       420        84  DCM       CL2            -1.1454392503        2.4809908677       -7.6039663133  CLST      84              1.0000000000
       421        85  DCM       C              -5.8236353537       -1.5700435104       -4.1954411948  CLST      85              1.0000000000
       422        85  DCM       H1             -5.9072344214       -2.5401339833       -4.7252787579  CLST      85              1.0000000000
       423        85  DCM       H2             -6.7624443650       -0.9846970272       -4.2868905045  CLST      85              1.0000000000
       424        85  DCM       CL1            -5.5001481420       -1.8854881436       -2.4673410301  CLST      85              1.0000000000
       425        85  DCM       CL2            -4.4749427695       -0.6356606088       -4.9036279824  CLST      85              1.0000000000
       426        86  DCM       C               8.7012332939        0.4474135595       -1.9419629350  CLST      86              1.0000000000
       427        86  DCM       H1              8.8552705547       -0.5854472525       -2.3151165467  CLST      86              1.0000000000
       428        86  DCM       H2              9.3876890153        0.6766188184       -1.0987850085  CLST      86              1.0000000000
       429        86  DCM       CL1             7.0154785826        0.6136154469       -1.3792758396  CLST      86              1.0000000000
       430        86  DCM       CL2             9.0185580195        1.5979873373       -3.2665827146  CLST      86              1.0000000000
       431        87  DCM       C               7.6040574898       -1.0829956201        6.6328304595  CLST      87              1.0000000000
       432        87  DCM       H1              7.2199025948       -0.4554151818        7.4638620731  CLST      87              1.0000000000
       433        87  DCM       H2              8.5272475005       -1.6226091002        6.9335478024  CLST      87              1.0000000000
       434        87  DCM       CL1             6.3530149008       -2.2762890679        6.1773575976  CLST      87              1.0000000000
       435        87  DCM       CL2             7.9748018717       -0.0311111133        5.2371453873  CLST      87              1.0000000000
       436        88  DCM       C               3.7169021719        3.2198728098      -11.8505791983  CLST      88              1.0000000000
       437        88  DCM       H1              3.6634730704        2.4818791245      -12.6791664649  CLST      88              1.0000000000
       438        88  DCM       H2              2.9494933150        3.0101479523      -11.0761820249  CLST      88              1.0000000000
       439        88  DCM       CL1             5.3365832319        3.1320149078      -11.1011994562  CLST      88              1.0000000000
       440        88  DCM       CL2             3.4427192531        4.8558829554      -12.5165306501  CLST      88              1.0000000000
       441        89  DCM       C             -10.1506418727       -9.9617153636       -7.8703148567  CLST      89              1.0000000000
       442        89  DCM       H1            -11.0551455421       -9.4575967511       -7.4696866110  CLST      89              1.0000000000
       443        89  DCM       H2             -9.4126058891       -9.2191437325       -8.2379464616  CLST      89              1.0000000000
       444        89  DCM       CL1            -9.3956964060      -10.9356611777       -6.5750032605  CLST      89              1.0000000000
       445        89  DCM       CL2           -10.6270831640      -11.0231008215       -9.2264605097  CLST      89              1.0000000000
       446        90  DCM       C               1.3842447476        3.0055626402       -4.4876253535  CLST      90              1.0000000000
       447        90  DCM       H1              0.3064326786        2.9304394898       -4.2360086114  CLST      90              1.0000000000
       448        90  DCM       H2              2.0129856022        2.8574860340       -3.5876390141  CLST      90              1.0000000000
       449        90  DCM       CL1             1.7830606377        1.7433526898       -5.6871321129  CLST      90              1.0000000000
       450        90  DCM       CL2             1.7207340872        4.6254219602       -5.1664367300  CLST      90              1.0000000000
       451        91  DCM       C             -11.4326203627      -12.7224273073        2.9540113000  CLST      91              1.0000000000
       452        91  DCM       H1            -11.3499630632      -13.6231524739        3.5985028862  CLST      91              1.0000000000
       453        91  DCM       H2            -11.2061002084      -11.8001267006        3.5286914438  CLST      91              1.0000000000
       454        91  DCM       CL1           -10.2723813159      -12.8633740460        1.6009778134  CLST      91              1.0000000000
       455        91  DCM       CL2           -13.0981587171      -12.6091760283        2.3155101649  CLST      91              1.0000000000
       456        92  DCM       C              -5.7849509446        9.2771403409        9.2810277001  CLST      92              1.0000000000
       457        92  DCM       H1             -6.5976837436       10.0205506614        9.1385260909  CLST      92              1.0000000000
       458        92  DCM       H2             -5.9795739408        8.3564554669        8.6914799917  CLST      92              1.0000000000
       459        92  DCM       CL1            -4.2377421358        9.9948376939        8.7452878035  CLST      92              1.0000000000
       460        92  DCM       CL2            -5.6844930046        8.8484798473       11.0133911030  CLST      92              1.0000000000
