* CHARMM CGENFF SD/ABNR BEFORE MLPOT (MM ONLY)
*  DATE:     6/28/26      2: 4:44      CREATED BY USER: boittier
*
       490  EXT
         1         1  DCM       C              12.0333203954        2.5570054474        6.9262489602  CLST      1               1.0000000000
         2         1  DCM       H1             13.0283367631        2.1433963073        7.1943168748  CLST      1               1.0000000000
         3         1  DCM       H2             11.6738481886        2.1408557549        5.9620856989  CLST      1               1.0000000000
         4         1  DCM       CL1            12.1617572660        4.3350343626        6.7832848829  CLST      1               1.0000000000
         5         1  DCM       CL2            10.8648491364        2.1335250536        8.2104253187  CLST      1               1.0000000000
         6         2  DCM       C               6.1756015816        5.7195999888        3.6674402627  CLST      2               1.0000000000
         7         2  DCM       H1              7.0731766602        5.3558894822        3.1254528352  CLST      2               1.0000000000
         8         2  DCM       H2              6.1902476191        5.3975481069        4.7295341357  CLST      2               1.0000000000
         9         2  DCM       CL1             6.1452422549        7.5045315324        3.6084121149  CLST      2               1.0000000000
        10         2  DCM       CL2             4.7145568808        5.0590609023        2.8792442397  CLST      2               1.0000000000
        11         3  DCM       C              -4.8884420253      -13.5734197064       -0.7840435022  CLST      3               1.0000000000
        12         3  DCM       H1             -5.7515233943      -14.1634785747       -1.1596473437  CLST      3               1.0000000000
        13         3  DCM       H2             -4.0241923380      -14.2304000951       -0.5520904808  CLST      3               1.0000000000
        14         3  DCM       CL1            -4.4007577220      -12.3967569055       -2.0383331279  CLST      3               1.0000000000
        15         3  DCM       CL2            -5.3771663718      -12.7100723483        0.7036344086  CLST      3               1.0000000000
        16         4  DCM       C               8.5640258840       -7.7157541911       -3.1449222116  CLST      4               1.0000000000
        17         4  DCM       H1              9.4073037906       -7.0950544991       -2.7745563960  CLST      4               1.0000000000
        18         4  DCM       H2              8.6568036900       -7.9093281144       -4.2334990610  CLST      4               1.0000000000
        19         4  DCM       CL1             8.5708845342       -9.2807598911       -2.2820372096  CLST      4               1.0000000000
        20         4  DCM       CL2             7.0271508649       -6.8559655266       -2.8347484376  CLST      4               1.0000000000
        21         5  DCM       C               5.8172914717       -8.7683236529       -0.0486043347  CLST      5               1.0000000000
        22         5  DCM       H1              5.5412874906       -8.9783177872       -1.1039710291  CLST      5               1.0000000000
        23         5  DCM       H2              6.9164056633       -8.8316971608        0.0928806629  CLST      5               1.0000000000
        24         5  DCM       CL1             5.2733674757       -7.1228236782        0.3864935732  CLST      5               1.0000000000
        25         5  DCM       CL2             5.0282430803       -9.9673504351        1.0137290936  CLST      5               1.0000000000
        26         6  DCM       C               4.5228522673       -7.7239183705        3.8677573452  CLST      6               1.0000000000
        27         6  DCM       H1              5.4767741940       -8.2918358515        3.8765817286  CLST      6               1.0000000000
        28         6  DCM       H2              3.9566195996       -7.9120684111        2.9329574858  CLST      6               1.0000000000
        29         6  DCM       CL1             3.5269912862       -8.2342782816        5.2605355851  CLST      6               1.0000000000
        30         6  DCM       CL2             4.8768508854       -5.9767648429        3.9759867021  CLST      6               1.0000000000
        31         7  DCM       C              -4.9650141291        0.9547966751       -3.6143849094  CLST      7               1.0000000000
        32         7  DCM       H1             -5.5938705965        1.8082156498       -3.9448688370  CLST      7               1.0000000000
        33         7  DCM       H2             -3.9512188135        1.0087130417       -4.0653301176  CLST      7               1.0000000000
        34         7  DCM       CL1            -4.8207222605        1.0009229356       -1.8350524584  CLST      7               1.0000000000
        35         7  DCM       CL2            -5.7464336813       -0.5690690698       -4.1190517520  CLST      7               1.0000000000
        36         8  DCM       C              -4.4695394734        5.4762867763       11.5626889504  CLST      8               1.0000000000
        37         8  DCM       H1             -4.1482692408        6.2512952461       10.8349696471  CLST      8               1.0000000000
        38         8  DCM       H2             -4.0523534945        5.6793310091       12.5716589428  CLST      8               1.0000000000
        39         8  DCM       CL1            -6.2548823887        5.4741774393       11.6612258933  CLST      8               1.0000000000
        40         8  DCM       CL2            -3.8922078174        3.8783342038       11.0050730824  CLST      8               1.0000000000
        41         9  DCM       C               5.3420889151        5.6167885916       -4.5502195424  CLST      9               1.0000000000
        42         9  DCM       H1              5.2076902688        4.5159362292       -4.5218380810  CLST      9               1.0000000000
        43         9  DCM       H2              4.4208716378        6.1221180697       -4.9069957192  CLST      9               1.0000000000
        44         9  DCM       CL1             5.7213984341        6.1941291994       -2.9041634930  CLST      9               1.0000000000
        45         9  DCM       CL2             6.6900704038        6.0089227130       -5.6560621488  CLST      9               1.0000000000
        46        10  DCM       C               5.5755688354       -3.8077100130       -3.9111295007  CLST      10              1.0000000000
        47        10  DCM       H1              5.0058046660       -4.5895311843       -3.3648098787  CLST      10              1.0000000000
        48        10  DCM       H2              6.6591882085       -4.0480392088       -3.9396970696  CLST      10              1.0000000000
        49        10  DCM       CL1             4.9687505669       -3.7139841679       -5.5864098645  CLST      10              1.0000000000
        50        10  DCM       CL2             5.3456259885       -2.2335791950       -3.0969048734  CLST      10              1.0000000000
        51        11  DCM       C               8.3810603938       -7.2377363962        6.7452280756  CLST      11              1.0000000000
        52        11  DCM       H1              8.2234312829       -6.8726066635        7.7822055461  CLST      11              1.0000000000
        53        11  DCM       H2              9.4128344558       -7.6257283410        6.6098376578  CLST      11              1.0000000000
        54        11  DCM       CL1             7.2147689529       -8.5493180893        6.4035981527  CLST      11              1.0000000000
        55        11  DCM       CL2             8.1160064977       -5.8866494193        5.6084165099  CLST      11              1.0000000000
        56        12  DCM       C               0.6235065262       10.5814876130       -9.9499599955  CLST      12              1.0000000000
        57        12  DCM       H1             -0.1937498998        9.9194072816       -9.5940909702  CLST      12              1.0000000000
        58        12  DCM       H2              0.2467680524       11.3188442410      -10.6902323135  CLST      12              1.0000000000
        59        12  DCM       CL1             1.3098909399       11.4606902090       -8.5523371457  CLST      12              1.0000000000
        60        12  DCM       CL2             1.8914253543        9.5816767213      -10.7188246962  CLST      12              1.0000000000
        61        13  DCM       C              -2.1158485189        1.4680693890        6.4042790654  CLST      13              1.0000000000
        62        13  DCM       H1             -2.2119872668        0.4031587011        6.7041589080  CLST      13              1.0000000000
        63        13  DCM       H2             -1.0496979554        1.7605989061        6.3071691218  CLST      13              1.0000000000
        64        13  DCM       CL1            -2.9275249721        1.7024066655        4.8309860052  CLST      13              1.0000000000
        65        13  DCM       CL2            -2.8927333945        2.4953531425        7.6432209826  CLST      13              1.0000000000
        66        14  DCM       C               2.7295485310       -2.5255343127       -0.5101080163  CLST      14              1.0000000000
        67        14  DCM       H1              2.0929394777       -1.9240987507       -1.1908992961  CLST      14              1.0000000000
        68        14  DCM       H2              3.7339442106       -2.0651347000       -0.4102821657  CLST      14              1.0000000000
        69        14  DCM       CL1             1.9414870055       -2.5969337259        1.0897360944  CLST      14              1.0000000000
        70        14  DCM       CL2             2.9198545655       -4.1733359896       -1.1658206988  CLST      14              1.0000000000
        71        15  DCM       C               7.6100512552       -1.0108862640       -5.8135148120  CLST      15              1.0000000000
        72        15  DCM       H1              6.5461046916       -1.1947431210       -5.5583942385  CLST      15              1.0000000000
        73        15  DCM       H2              7.6930958219       -0.2473551537       -6.6137165090  CLST      15              1.0000000000
        74        15  DCM       CL1             8.4722208048       -0.4336441578       -4.3579852380  CLST      15              1.0000000000
        75        15  DCM       CL2             8.3476379263       -2.5334394070       -6.3847243694  CLST      15              1.0000000000
        76        16  DCM       C               4.7967830308       -5.7575414533        7.7276653270  CLST      16              1.0000000000
        77        16  DCM       H1              4.4555204004       -6.4117036657        8.5542706008  CLST      16              1.0000000000
        78        16  DCM       H2              5.2467278818       -6.3468009535        6.9072027790  CLST      16              1.0000000000
        79        16  DCM       CL1             3.3923027698       -4.8507626541        7.0882961212  CLST      16              1.0000000000
        80        16  DCM       CL2             6.0175395933       -4.6087547902        8.3550231531  CLST      16              1.0000000000
        81        17  DCM       C              -6.5746842191       -9.6113322002       -1.5968191999  CLST      17              1.0000000000
        82        17  DCM       H1             -5.5266902943       -9.2467379705       -1.6108671944  CLST      17              1.0000000000
        83        17  DCM       H2             -6.6901520381      -10.4498695937       -0.8793095613  CLST      17              1.0000000000
        84        17  DCM       CL1            -7.6526109751       -8.2752975039       -1.1055944688  CLST      17              1.0000000000
        85        17  DCM       CL2            -7.0161255763      -10.1749211550       -3.2334312240  CLST      17              1.0000000000
        86        18  DCM       C              -7.3042885463        2.9213445796        9.2691792986  CLST      18              1.0000000000
        87        18  DCM       H1             -7.7017647056        3.9571161834        9.2356424229  CLST      18              1.0000000000
        88        18  DCM       H2             -6.5186731419        2.8185696429       10.0465104241  CLST      18              1.0000000000
        89        18  DCM       CL1            -8.6450499841        1.8001424641        9.6428059524  CLST      18              1.0000000000
        90        18  DCM       CL2            -6.6001567670        2.5194644471        7.6780686389  CLST      18              1.0000000000
        91        19  DCM       C               1.1945090922       -5.2252987953       -6.1685834759  CLST      19              1.0000000000
        92        19  DCM       H1              0.1659443086       -5.6215292577       -6.0330243192  CLST      19              1.0000000000
        93        19  DCM       H2              1.8090897568       -5.9111504282       -6.7873448039  CLST      19              1.0000000000
        94        19  DCM       CL1             1.1115436302       -3.6313076636       -6.9676431732  CLST      19              1.0000000000
        95        19  DCM       CL2             1.9698160469       -5.0589151633       -4.5727141990  CLST      19              1.0000000000
        96        20  DCM       C              -0.0883165067        0.4390101769       -9.4013775187  CLST      20              1.0000000000
        97        20  DCM       H1              0.1532112898        1.5216510027       -9.3562883548  CLST      20              1.0000000000
        98        20  DCM       H2             -1.1413789431        0.2805793807       -9.7158495777  CLST      20              1.0000000000
        99        20  DCM       CL1             1.0002623963       -0.3581424771      -10.5724803864  CLST      20              1.0000000000
       100        20  DCM       CL2             0.1485612166       -0.2770101397       -7.7836161049  CLST      20              1.0000000000
       101        21  DCM       C               1.8835660402       11.0115641488       -0.8451635714  CLST      21              1.0000000000
       102        21  DCM       H1              2.5269845995       10.1205142805       -0.9951243389  CLST      21              1.0000000000
       103        21  DCM       H2              2.3536999152       11.7278633838       -0.1381431555  CLST      21              1.0000000000
       104        21  DCM       CL1             1.6378497614       11.8177216815       -2.4215323086  CLST      21              1.0000000000
       105        21  DCM       CL2             0.3110666432       10.4815807945       -0.1818541215  CLST      21              1.0000000000
       106        22  DCM       C              -2.6425450760      -11.4708793918        4.3888339249  CLST      22              1.0000000000
       107        22  DCM       H1             -1.8262405389      -12.0445209264        4.8771639481  CLST      22              1.0000000000
       108        22  DCM       H2             -3.1214080791      -12.0631823297        3.5807531719  CLST      22              1.0000000000
       109        22  DCM       CL1            -3.8735046069      -11.0440524285        5.6137317561  CLST      22              1.0000000000
       110        22  DCM       CL2            -1.9580541226       -9.9810228084        3.6826468672  CLST      22              1.0000000000
       111        23  DCM       C               2.3576858272       -8.9085650207       -1.7412512738  CLST      23              1.0000000000
       112        23  DCM       H1              2.6625478716       -8.9591959526       -0.6755676095  CLST      23              1.0000000000
       113        23  DCM       H2              1.2713437394       -8.7007427193       -1.8374712010  CLST      23              1.0000000000
       114        23  DCM       CL1             3.2746442502       -7.6025064197       -2.5425373328  CLST      23              1.0000000000
       115        23  DCM       CL2             2.7281277175      -10.4726869231       -2.5198771427  CLST      23              1.0000000000
       116        24  DCM       C              -4.3913812493       -8.6529273056        9.4280264215  CLST      24              1.0000000000
       117        24  DCM       H1             -4.1653048984       -8.6937357348        8.3424109034  CLST      24              1.0000000000
       118        24  DCM       H2             -3.5852344448       -8.1201680831        9.9793597878  CLST      24              1.0000000000
       119        24  DCM       CL1            -5.9351958346       -7.7858336108        9.6697077230  CLST      24              1.0000000000
       120        24  DCM       CL2            -4.5229318843      -10.3222149091       10.0496107321  CLST      24              1.0000000000
       121        25  DCM       C              -9.1590489804       -7.2877100406       -4.4379674294  CLST      25              1.0000000000
       122        25  DCM       H1            -10.1716817742       -7.2191720601       -4.8885033290  CLST      25              1.0000000000
       123        25  DCM       H2             -9.1226839037       -8.0785627211       -3.6613246788  CLST      25              1.0000000000
       124        25  DCM       CL1            -7.9714283030       -7.6780140656       -5.7145871585  CLST      25              1.0000000000
       125        25  DCM       CL2            -8.7501879431       -5.7214122538       -3.6829206421  CLST      25              1.0000000000
       126        26  DCM       C               3.7620488583        4.3713779235      -10.4950757882  CLST      26              1.0000000000
       127        26  DCM       H1              4.0680480477        4.4975714952      -11.5548647569  CLST      26              1.0000000000
       128        26  DCM       H2              4.5905428336        3.9504544654       -9.8867379439  CLST      26              1.0000000000
       129        26  DCM       CL1             3.3041000967        5.9667038027       -9.8285984477  CLST      26              1.0000000000
       130        26  DCM       CL2             2.3657855799        3.2566677110      -10.4223746390  CLST      26              1.0000000000
       131        27  DCM       C               1.5346799058      -10.1981280621        2.4830097229  CLST      27              1.0000000000
       132        27  DCM       H1              0.6264392593       -9.5636023842        2.4286233415  CLST      27              1.0000000000
       133        27  DCM       H2              2.4502694138       -9.5745493919        2.5193418904  CLST      27              1.0000000000
       134        27  DCM       CL1             1.4579535680      -11.2015064476        3.9598596115  CLST      27              1.0000000000
       135        27  DCM       CL2             1.6034567146      -11.2448046184        1.0369826448  CLST      27              1.0000000000
       136        28  DCM       C             -10.5971569547        5.7638177137        3.5181582745  CLST      28              1.0000000000
       137        28  DCM       H1            -10.5063232199        5.8625796157        4.6207118823  CLST      28              1.0000000000
       138        28  DCM       H2             -9.6336325077        5.4497575555        3.0657191817  CLST      28              1.0000000000
       139        28  DCM       CL1           -11.0776717453        7.3409662147        2.8271833659  CLST      28              1.0000000000
       140        28  DCM       CL2           -11.8430458001        4.5378550164        3.1477160713  CLST      28              1.0000000000
       141        29  DCM       C               0.1848866304        7.0562146305        1.8596062514  CLST      29              1.0000000000
       142        29  DCM       H1             -0.8534718624        6.7577339971        1.6101932871  CLST      29              1.0000000000
       143        29  DCM       H2              0.5416662769        7.8532714606        1.1743610691  CLST      29              1.0000000000
       144        29  DCM       CL1             0.2273927524        7.6720142220        3.5357482135  CLST      29              1.0000000000
       145        29  DCM       CL2             1.2554363004        5.6324212442        1.7065967015  CLST      29              1.0000000000
       146        30  DCM       C               3.9876186068       -1.4737163203       -8.7212407142  CLST      30              1.0000000000
       147        30  DCM       H1              3.8799738907       -0.6508688540       -9.4586258764  CLST      30              1.0000000000
       148        30  DCM       H2              3.1945963168       -2.2397113658       -8.8562298347  CLST      30              1.0000000000
       149        30  DCM       CL1             5.5871312243       -2.2409292911       -8.9366587257  CLST      30              1.0000000000
       150        30  DCM       CL2             3.8618631889       -0.7964164916       -7.0744083985  CLST      30              1.0000000000
       151        31  DCM       C               1.7238205965       -1.3731707644       -4.3450114151  CLST      31              1.0000000000
       152        31  DCM       H1              1.3213234094       -1.0012977520       -5.3092265707  CLST      31              1.0000000000
       153        31  DCM       H2              2.4880119614       -2.1615370782       -4.5098528516  CLST      31              1.0000000000
       154        31  DCM       CL1             0.3852231169       -2.0527164015       -3.3797120417  CLST      31              1.0000000000
       155        31  DCM       CL2             2.4777884225       -0.0133214530       -3.4704243865  CLST      31              1.0000000000
       156        32  DCM       C             -11.2249058077       -2.9820634352        0.0394197343  CLST      32              1.0000000000
       157        32  DCM       H1            -11.8303722112       -2.0711538667       -0.1492077231  CLST      32              1.0000000000
       158        32  DCM       H2            -10.1412192558       -2.7441120241        0.0655068285  CLST      32              1.0000000000
       159        32  DCM       CL1           -11.6975536537       -3.6825612403        1.6133881530  CLST      32              1.0000000000
       160        32  DCM       CL2           -11.5259664808       -4.1641073778       -1.2659383830  CLST      32              1.0000000000
       161        33  DCM       C              -1.7188820491       -8.0402175369        6.6564866691  CLST      33              1.0000000000
       162        33  DCM       H1             -2.6731562148       -8.2979814939        6.1512963264  CLST      33              1.0000000000
       163        33  DCM       H2             -0.9105636301       -7.8708361622        5.9160721575  CLST      33              1.0000000000
       164        33  DCM       CL1            -1.9537955105       -6.5508536163        7.6156163243  CLST      33              1.0000000000
       165        33  DCM       CL2            -1.2465211741       -9.3902607798        7.7275051919  CLST      33              1.0000000000
       166        34  DCM       C               8.5073670642       -6.4455000589        2.0856698658  CLST      34              1.0000000000
       167        34  DCM       H1              7.5833990413       -5.8402631907        2.1988321365  CLST      34              1.0000000000
       168        34  DCM       H2              9.3477887480       -6.0023131768        2.6602882500  CLST      34              1.0000000000
       169        34  DCM       CL1             8.1971337449       -8.0983304052        2.6910896137  CLST      34              1.0000000000
       170        34  DCM       CL2             8.9558780277       -6.5057555926        0.3574815588  CLST      34              1.0000000000
       171        35  DCM       C               0.2338833052       -7.4393106622       -8.9064044054  CLST      35              1.0000000000
       172        35  DCM       H1             -0.5307947836       -7.8309698206       -8.2021958989  CLST      35              1.0000000000
       173        35  DCM       H2              0.4538336990       -6.3708241247       -8.7044894093  CLST      35              1.0000000000
       174        35  DCM       CL1             1.7377500227       -8.3896050166       -8.7260809253  CLST      35              1.0000000000
       175        35  DCM       CL2            -0.3801410738       -7.5842121275      -10.5776190984  CLST      35              1.0000000000
       176        36  DCM       C              10.2433366444        0.0349592063       -8.5449633392  CLST      36              1.0000000000
       177        36  DCM       H1             11.1450904918       -0.6081921959       -8.6327453854  CLST      36              1.0000000000
       178        36  DCM       H2              9.9281512419        0.1343554665       -7.4842213637  CLST      36              1.0000000000
       179        36  DCM       CL1            10.6179971294        1.6570709141       -9.1942516188  CLST      36              1.0000000000
       180        36  DCM       CL2             8.9128351758       -0.7008501287       -9.4847907795  CLST      36              1.0000000000
       181        37  DCM       C               8.9757617663        0.3541957888       -0.2886112039  CLST      37              1.0000000000
       182        37  DCM       H1              8.8783909078        1.4316359232       -0.5370005811  CLST      37              1.0000000000
       183        37  DCM       H2              9.8248703073       -0.1068674029       -0.8361113206  CLST      37              1.0000000000
       184        37  DCM       CL1             9.2489656723        0.1816932149        1.4691376742  CLST      37              1.0000000000
       185        37  DCM       CL2             7.4676524587       -0.4830015775       -0.7483626041  CLST      37              1.0000000000
       186        38  DCM       C              -5.6628109803       -9.6537313173        2.7159060882  CLST      38              1.0000000000
       187        38  DCM       H1             -5.4434754661       -8.9673696288        3.5588357235  CLST      38              1.0000000000
       188        38  DCM       H2             -5.4296935027      -10.7044478012        2.9866132943  CLST      38              1.0000000000
       189        38  DCM       CL1            -4.6690230150       -9.1765943080        1.3129940064  CLST      38              1.0000000000
       190        38  DCM       CL2            -7.3937758012       -9.5304385136        2.2980992367  CLST      38              1.0000000000
       191        39  DCM       C               4.2272030605        7.8505240537        0.2002814483  CLST      39              1.0000000000
       192        39  DCM       H1              3.4736259415        7.4256529804       -0.4961531403  CLST      39              1.0000000000
       193        39  DCM       H2              4.8756265813        7.0534705884        0.6202132881  CLST      39              1.0000000000
       194        39  DCM       CL1             5.2448447893        9.0226487428       -0.6851354811  CLST      39              1.0000000000
       195        39  DCM       CL2             3.3824595981        8.6791124913        1.5387680709  CLST      39              1.0000000000
       196        40  DCM       C               7.4954058917        2.1579843195        4.2248548015  CLST      40              1.0000000000
       197        40  DCM       H1              7.7850534132        2.0459562137        3.1593396366  CLST      40              1.0000000000
       198        40  DCM       H2              7.3866491938        3.2288004779        4.4938868638  CLST      40              1.0000000000
       199        40  DCM       CL1             5.9374823886        1.3279970422        4.5030096538  CLST      40              1.0000000000
       200        40  DCM       CL2             8.7589708728        1.4328793355        5.2582817730  CLST      40              1.0000000000
       201        41  DCM       C              -4.8819394018       -6.1127760925       -2.7263058459  CLST      41              1.0000000000
       202        41  DCM       H1             -4.0248625622       -6.1023052479       -3.4317187002  CLST      41              1.0000000000
       203        41  DCM       H2             -5.6679946698       -6.8238315598       -3.0606038627  CLST      41              1.0000000000
       204        41  DCM       CL1            -4.2989653215       -6.5984805904       -1.1089676793  CLST      41              1.0000000000
       205        41  DCM       CL2            -5.5829303211       -4.4738506666       -2.6442274522  CLST      41              1.0000000000
       206        42  DCM       C              -5.5256738605        4.4117727900        4.5905188007  CLST      42              1.0000000000
       207        42  DCM       H1             -5.3209434925        3.4708033500        5.1448571819  CLST      42              1.0000000000
       208        42  DCM       H2             -4.8036754210        5.2039906761        4.8734928227  CLST      42              1.0000000000
       209        42  DCM       CL1            -5.3823460406        4.0988227103        2.8400616261  CLST      42              1.0000000000
       210        42  DCM       CL2            -7.1824100420        4.9641692038        4.9662849446  CLST      42              1.0000000000
       211        43  DCM       C              -4.1384181679       -3.9469946996        6.0737488059  CLST      43              1.0000000000
       212        43  DCM       H1             -3.5453447665       -4.8289250408        5.7550635448  CLST      43              1.0000000000
       213        43  DCM       H2             -3.4740034350       -3.1044459062        6.3578973477  CLST      43              1.0000000000
       214        43  DCM       CL1            -5.1879226644       -3.4307620971        4.7222001167  CLST      43              1.0000000000
       215        43  DCM       CL2            -5.1390874653       -4.4047640829        7.4817690541  CLST      43              1.0000000000
       216        44  DCM       C              -2.3596397010        4.7250402931       -5.7432007692  CLST      44              1.0000000000
       217        44  DCM       H1             -1.8780633132        3.9856074602       -6.4152636819  CLST      44              1.0000000000
       218        44  DCM       H2             -2.7967417354        5.5662892942       -6.3210368852  CLST      44              1.0000000000
       219        44  DCM       CL1            -1.1349531575        5.3657190717       -4.6141376296  CLST      44              1.0000000000
       220        44  DCM       CL2            -3.6549647202        3.9126639542       -4.8233844691  CLST      44              1.0000000000
       221        45  DCM       C               0.0554153923      -10.1372844083       -5.0611365836  CLST      45              1.0000000000
       222        45  DCM       H1              0.8003451734      -10.9384445264       -4.8689395995  CLST      45              1.0000000000
       223        45  DCM       H2             -0.6741911338      -10.0599835359       -4.2284116170  CLST      45              1.0000000000
       224        45  DCM       CL1             0.9099316138       -8.5782518522       -5.2264977091  CLST      45              1.0000000000
       225        45  DCM       CL2            -0.8201186409      -10.5090949643       -6.5742742918  CLST      45              1.0000000000
       226        46  DCM       C              -7.1329415037        7.6390343718        2.2412089197  CLST      46              1.0000000000
       227        46  DCM       H1             -6.5569543584        7.1518618957        3.0549343782  CLST      46              1.0000000000
       228        46  DCM       H2             -8.2230060374        7.5797629895        2.4341713981  CLST      46              1.0000000000
       229        46  DCM       CL1            -6.6540821643        9.3573579358        2.1353066588  CLST      46              1.0000000000
       230        46  DCM       CL2            -6.7713461319        6.8143818260        0.6993877286  CLST      46              1.0000000000
       231        47  DCM       C               7.5200923543        3.9114251491        7.8537290713  CLST      47              1.0000000000
       232        47  DCM       H1              7.5339004934        4.4373102756        8.8321521000  CLST      47              1.0000000000
       233        47  DCM       H2              7.9370153316        2.8862586221        7.9454336724  CLST      47              1.0000000000
       234        47  DCM       CL1             5.8342101232        3.8045627404        7.2695520537  CLST      47              1.0000000000
       235        47  DCM       CL2             8.5051037202        4.8361212945        6.6852016146  CLST      47              1.0000000000
       236        48  DCM       C              -5.6582553289       -0.1889919099        3.1135469221  CLST      48              1.0000000000
       237        48  DCM       H1             -4.5861244723       -0.3361844123        3.3505444744  CLST      48              1.0000000000
       238        48  DCM       H2             -6.1748481484       -1.1630981308        2.9628138560  CLST      48              1.0000000000
       239        48  DCM       CL1            -5.8007245339        0.7750758847        1.6180464738  CLST      48              1.0000000000
       240        48  DCM       CL2            -6.4440383918        0.6769492427        4.4632355170  CLST      48              1.0000000000
       241        49  DCM       C               4.0631566788        1.7369409118        1.3274669154  CLST      49              1.0000000000
       242        49  DCM       H1              3.4587692205        2.6496724704        1.5130126462  CLST      49              1.0000000000
       243        49  DCM       H2              4.1026434762        1.0934814577        2.2304148872  CLST      49              1.0000000000
       244        49  DCM       CL1             3.3308185494        0.8125290024       -0.0095155867  CLST      49              1.0000000000
       245        49  DCM       CL2             5.7243763594        2.2101323863        0.8788778690  CLST      49              1.0000000000
       246        50  DCM       C              -4.6531482779        0.7893053664       -7.5557929389  CLST      50              1.0000000000
       247        50  DCM       H1             -4.6589902342       -0.0889227238       -6.8773408505  CLST      50              1.0000000000
       248        50  DCM       H2             -4.8880163337        0.4882705703       -8.5984364029  CLST      50              1.0000000000
       249        50  DCM       CL1            -5.8794761073        1.9641979874       -7.0001491721  CLST      50              1.0000000000
       250        50  DCM       CL2            -3.0313241416        1.5373567832       -7.5164448625  CLST      50              1.0000000000
       251        51  DCM       C               1.4318797890        8.2182308004       -7.0181567518  CLST      51              1.0000000000
       252        51  DCM       H1              2.0314026860        8.9627447126       -6.4524400169  CLST      51              1.0000000000
       253        51  DCM       H2              1.6401311469        8.2811779094       -8.1064746631  CLST      51              1.0000000000
       254        51  DCM       CL1             1.8512344059        6.5792428032       -6.4506894767  CLST      51              1.0000000000
       255        51  DCM       CL2            -0.3055777260        8.5303571125       -6.7352765571  CLST      51              1.0000000000
       256        52  DCM       C               5.5332191853        1.8895841210       -2.9369028631  CLST      52              1.0000000000
       257        52  DCM       H1              5.5023473349        0.9395669019       -2.3631577786  CLST      52              1.0000000000
       258        52  DCM       H2              4.7037181281        2.5614969261       -2.6372974512  CLST      52              1.0000000000
       259        52  DCM       CL1             7.0874344419        2.7154799600       -2.6320492495  CLST      52              1.0000000000
       260        52  DCM       CL2             5.3787137540        1.5213778216       -4.6763274219  CLST      52              1.0000000000
       261        53  DCM       C               2.4571646266        2.3658437296       -6.8368904840  CLST      53              1.0000000000
       262        53  DCM       H1              2.5431184051        1.6798942852       -7.7048305795  CLST      53              1.0000000000
       263        53  DCM       H2              2.5893218271        1.8219345420       -5.8778566852  CLST      53              1.0000000000
       264        53  DCM       CL1             3.7111843805        3.6283034546       -6.9732898393  CLST      53              1.0000000000
       265        53  DCM       CL2             0.8402297362        3.1172506326       -6.8569443969  CLST      53              1.0000000000
       266        54  DCM       C              -4.1007925901        4.4602161571       -0.4984317722  CLST      54              1.0000000000
       267        54  DCM       H1             -4.1551319888        5.3598208739        0.1506358046  CLST      54              1.0000000000
       268        54  DCM       H2             -4.2075182666        3.5323378884        0.1011377399  CLST      54              1.0000000000
       269        54  DCM       CL1            -5.4214889983        4.5194561518       -1.7016968377  CLST      54              1.0000000000
       270        54  DCM       CL2            -2.5165768020        4.4390791618       -1.3276180063  CLST      54              1.0000000000
       271        55  DCM       C              -3.1700963020       -2.0336749707        0.0145578606  CLST      55              1.0000000000
       272        55  DCM       H1             -3.6051688565       -2.9499912371        0.4676199422  CLST      55              1.0000000000
       273        55  DCM       H2             -3.7868926866       -1.1394926741        0.2412381182  CLST      55              1.0000000000
       274        55  DCM       CL1            -1.5246136813       -1.7842514064        0.6630270569  CLST      55              1.0000000000
       275        55  DCM       CL2            -3.0883982587       -2.2485320247       -1.7552048458  CLST      55              1.0000000000
       276        56  DCM       C              11.2900024988        5.2595786876        3.1434636379  CLST      56              1.0000000000
       277        56  DCM       H1             11.4445420676        5.4664962540        2.0636658400  CLST      56              1.0000000000
       278        56  DCM       H2             12.1768015194        5.5586731068        3.7418770145  CLST      56              1.0000000000
       279        56  DCM       CL1             9.8716561925        6.1859686436        3.7107320136  CLST      56              1.0000000000
       280        56  DCM       CL2            11.0022324061        3.5089010492        3.3660788989  CLST      56              1.0000000000
       281        57  DCM       C              -1.2877330984        1.0283772640       -2.4272610169  CLST      57              1.0000000000
       282        57  DCM       H1             -2.0795573656        1.6803183254       -2.0058028071  CLST      57              1.0000000000
       283        57  DCM       H2             -1.6872277101        0.0269017530       -2.6835756049  CLST      57              1.0000000000
       284        57  DCM       CL1            -0.6377514690        1.7864114326       -3.9071826304  CLST      57              1.0000000000
       285        57  DCM       CL2             0.0058589991        0.8431157242       -1.2122391431  CLST      57              1.0000000000
       286        58  DCM       C               7.1828553664       -5.6526951200       -7.9609796519  CLST      58              1.0000000000
       287        58  DCM       H1              6.2467667666       -5.0807876428       -7.7955639349  CLST      58              1.0000000000
       288        58  DCM       H2              7.9256818466       -5.0449960956       -8.5199807602  CLST      58              1.0000000000
       289        58  DCM       CL1             7.8713894159       -6.1015325899       -6.3743769888  CLST      58              1.0000000000
       290        58  DCM       CL2             6.8043039856       -7.1280732910       -8.8970324999  CLST      58              1.0000000000
       291        59  DCM       C              -9.6280636936        2.1293337357        5.9371443034  CLST      59              1.0000000000
       292        59  DCM       H1             -8.7684727053        2.3279063539        5.2639941651  CLST      59              1.0000000000
       293        59  DCM       H2             -9.3495262647        1.4086035573        6.7342464836  CLST      59              1.0000000000
       294        59  DCM       CL1           -10.1384396265        3.6678056326        6.6917010091  CLST      59              1.0000000000
       295        59  DCM       CL2           -10.9737562336        1.4451471713        4.9818018848  CLST      59              1.0000000000
       296        60  DCM       C              -3.6957011309        9.3331796242       -0.3610679492  CLST      60              1.0000000000
       297        60  DCM       H1             -4.6840325890        8.9018910178       -0.0957519934  CLST      60              1.0000000000
       298        60  DCM       H2             -3.7397968149        9.8642036948       -1.3346810862  CLST      60              1.0000000000
       299        60  DCM       CL1            -3.2017467452       10.4883674894        0.9094988153  CLST      60              1.0000000000
       300        60  DCM       CL2            -2.5030427951        8.0090553605       -0.4777498645  CLST      60              1.0000000000
       301        61  DCM       C               7.8931156582       -1.8572734543        4.3544984112  CLST      61              1.0000000000
       302        61  DCM       H1              7.5232399886       -1.0597330016        3.6765066347  CLST      61              1.0000000000
       303        61  DCM       H2              8.5758119485       -1.4365758788        5.1206546885  CLST      61              1.0000000000
       304        61  DCM       CL1             6.4987987388       -2.6239695063        5.1721766648  CLST      61              1.0000000000
       305        61  DCM       CL2             8.7846349676       -3.0688021825        3.3898227388  CLST      61              1.0000000000
       306        62  DCM       C              -6.4263009443       -1.0916871306        8.3415093993  CLST      62              1.0000000000
       307        62  DCM       H1             -6.6573217979       -0.2791640709        9.0592543782  CLST      62              1.0000000000
       308        62  DCM       H2             -6.2877013297       -2.0599086369        8.8687735709  CLST      62              1.0000000000
       309        62  DCM       CL1            -7.7775299672       -1.2508392272        7.1817161472  CLST      62              1.0000000000
       310        62  DCM       CL2            -4.9216617690       -0.6824494994        7.4679235892  CLST      62              1.0000000000
       311        63  DCM       C              -9.4752965923       -1.5712841321        3.7287950678  CLST      63              1.0000000000
       312        63  DCM       H1             -9.1187991296       -0.8838511621        4.5248086326  CLST      63              1.0000000000
       313        63  DCM       H2            -10.5699648528       -1.7388075712        3.8061358430  CLST      63              1.0000000000
       314        63  DCM       CL1            -9.1055057072       -0.8517662456        2.1365016862  CLST      63              1.0000000000
       315        63  DCM       CL2            -8.6315808072       -3.1367648420        3.8950783338  CLST      63              1.0000000000
       316        64  DCM       C              -1.7856107759       -3.2180616574       -9.3919945905  CLST      64              1.0000000000
       317        64  DCM       H1             -1.7365462272       -3.4593755550      -10.4747991294  CLST      64              1.0000000000
       318        64  DCM       H2             -0.8242409316       -2.7930942765       -9.0353464142  CLST      64              1.0000000000
       319        64  DCM       CL1            -3.0839886856       -2.0213632785       -9.1183569374  CLST      64              1.0000000000
       320        64  DCM       CL2            -2.1339555684       -4.7142314631       -8.4784502707  CLST      64              1.0000000000
       321        65  DCM       C               0.9441992871        8.0868026169       -3.1058135379  CLST      65              1.0000000000
       322        65  DCM       H1              0.4985577751        7.6148470740       -4.0038039811  CLST      65              1.0000000000
       323        65  DCM       H2              0.4853154697        9.0775432651       -2.9100444938  CLST      65              1.0000000000
       324        65  DCM       CL1             0.6662280262        7.0241472066       -1.6975208106  CLST      65              1.0000000000
       325        65  DCM       CL2             2.6999919805        8.2877852945       -3.3695173508  CLST      65              1.0000000000
       326        66  DCM       C              -8.8670610463        9.9439552636        5.0920495839  CLST      66              1.0000000000
       327        66  DCM       H1             -9.7198291309       10.3956070858        5.6413369317  CLST      66              1.0000000000
       328        66  DCM       H2             -9.0097238229       10.0280018982        3.9936305948  CLST      66              1.0000000000
       329        66  DCM       CL1            -7.3639095242       10.7950115927        5.5513976515  CLST      66              1.0000000000
       330        66  DCM       CL2            -8.7403857756        8.2167019171        5.5322070249  CLST      66              1.0000000000
       331        67  DCM       C              -7.2113019522      -10.4772591964        7.4078937320  CLST      67              1.0000000000
       332        67  DCM       H1             -7.7845146667       -9.6280472043        7.8362732829  CLST      67              1.0000000000
       333        67  DCM       H2             -6.1199520682      -10.2909141115        7.4668278287  CLST      67              1.0000000000
       334        67  DCM       CL1            -7.5940064592      -11.9651408722        8.3248036470  CLST      67              1.0000000000
       335        67  DCM       CL2            -7.6703147431      -10.6851874102        5.6945994140  CLST      67              1.0000000000
       336        68  DCM       C              -6.6850171279       -4.6110367524        1.0359181178  CLST      68              1.0000000000
       337        68  DCM       H1             -6.8530581867       -3.7030319873        1.6517788980  CLST      68              1.0000000000
       338        68  DCM       H2             -5.7918442876       -4.4922143010        0.3878884085  CLST      68              1.0000000000
       339        68  DCM       CL1            -6.4434144771       -6.0121316480        2.1133806810  CLST      68              1.0000000000
       340        68  DCM       CL2            -8.1165075158       -4.8876522936        0.0044832118  CLST      68              1.0000000000
       341        69  DCM       C              -1.7703753713      -10.0134635073       -0.6510487141  CLST      69              1.0000000000
       342        69  DCM       H1             -2.7823122404       -9.7583665447       -1.0307602496  CLST      69              1.0000000000
       343        69  DCM       H2             -1.0657299372      -10.2045583281       -1.4874431835  CLST      69              1.0000000000
       344        69  DCM       CL1            -1.1592106220       -8.6496682610        0.3275442483  CLST      69              1.0000000000
       345        69  DCM       CL2            -1.8839621086      -11.4796091070        0.3649324665  CLST      69              1.0000000000
       346        70  DCM       C               9.0344621932       -3.6254227798       -2.1652081463  CLST      70              1.0000000000
       347        70  DCM       H1              8.4248971333       -2.7451401382       -2.4590021778  CLST      70              1.0000000000
       348        70  DCM       H2              8.3877285551       -4.4634774099       -1.8341419299  CLST      70              1.0000000000
       349        70  DCM       CL1             9.9993187004       -4.1641592488       -3.5686887329  CLST      70              1.0000000000
       350        70  DCM       CL2            10.1149152861       -3.1652411862       -0.8178640298  CLST      70              1.0000000000
       351        71  DCM       C              -3.9809079969       -8.5874758087       -5.5288372693  CLST      71              1.0000000000
       352        71  DCM       H1             -4.0542225283       -9.3990917879       -6.2830211355  CLST      71              1.0000000000
       353        71  DCM       H2             -4.9424042965       -8.0387600866       -5.4389630893  CLST      71              1.0000000000
       354        71  DCM       CL1            -3.5672034487       -9.3028395220       -3.9441812291  CLST      71              1.0000000000
       355        71  DCM       CL2            -2.7004221551       -7.4442427160       -6.0278116527  CLST      71              1.0000000000
       356        72  DCM       C              -3.5103000037        8.4875589443        4.0998682606  CLST      72              1.0000000000
       357        72  DCM       H1             -3.6471181078        9.4939512968        3.6520123979  CLST      72              1.0000000000
       358        72  DCM       H2             -2.5360162283        8.4109719994        4.6267179776  CLST      72              1.0000000000
       359        72  DCM       CL1            -4.8276696835        8.1917573345        5.2671457400  CLST      72              1.0000000000
       360        72  DCM       CL2            -3.5704155693        7.2590715176        2.8055269809  CLST      72              1.0000000000
       361        73  DCM       C              -7.1342604066       -6.8675605308        5.4828799615  CLST      73              1.0000000000
       362        73  DCM       H1             -7.5661880249       -7.4989768613        4.6813469944  CLST      73              1.0000000000
       363        73  DCM       H2             -6.9214344959       -5.8412165062        5.1137163448  CLST      73              1.0000000000
       364        73  DCM       CL1            -8.2996522568       -6.7618648302        6.8335029357  CLST      73              1.0000000000
       365        73  DCM       CL2            -5.6146490176       -7.6119615958        6.0537029053  CLST      73              1.0000000000
       366        74  DCM       C             -10.2183728330       -7.2156641765        1.7294948598  CLST      74              1.0000000000
       367        74  DCM       H1            -10.8842344345       -6.5686451646        1.1201838304  CLST      74              1.0000000000
       368        74  DCM       H2             -9.2260825823       -7.3313189562        1.2462635827  CLST      74              1.0000000000
       369        74  DCM       CL1            -9.9954098103       -6.4712158493        3.3374304108  CLST      74              1.0000000000
       370        74  DCM       CL2           -10.9677302448       -8.8281880369        1.9083019543  CLST      74              1.0000000000
       371        75  DCM       C               5.5191013894       -3.4316632634        1.6326077277  CLST      75              1.0000000000
       372        75  DCM       H1              6.1402888009       -3.8276238247        2.4613526673  CLST      75              1.0000000000
       373        75  DCM       H2              4.5227025543       -3.9194611673        1.6156104748  CLST      75              1.0000000000
       374        75  DCM       CL1             5.3233278897       -1.6692661730        1.8565826722  CLST      75              1.0000000000
       375        75  DCM       CL2             6.3495500127       -3.7577382482        0.0875069394  CLST      75              1.0000000000
       376        76  DCM       C               2.8540750743       -5.2026629538      -10.6617528561  CLST      76              1.0000000000
       377        76  DCM       H1              2.5155720510       -6.2188938865      -10.9562774558  CLST      76              1.0000000000
       378        76  DCM       H2              3.6042920269       -4.8067552487      -11.3785330815  CLST      76              1.0000000000
       379        76  DCM       CL1             1.4441058375       -4.1053411108      -10.6275015187  CLST      76              1.0000000000
       380        76  DCM       CL2             3.5921781554       -5.2849171272       -9.0376973389  CLST      76              1.0000000000
       381        77  DCM       C              -4.1405080808        7.3315656917       -3.7130231194  CLST      77              1.0000000000
       382        77  DCM       H1             -4.4209566886        6.8198018612       -4.6565520480  CLST      77              1.0000000000
       383        77  DCM       H2             -3.6797021002        6.6185930190       -2.9945150402  CLST      77              1.0000000000
       384        77  DCM       CL1            -2.9591543378        8.6216602496       -4.0791508387  CLST      77              1.0000000000
       385        77  DCM       CL2            -5.6113451421        8.0312180353       -2.9773186531  CLST      77              1.0000000000
       386        78  DCM       C              -6.3008033210        6.7254645908        8.1639258608  CLST      78              1.0000000000
       387        78  DCM       H1             -6.7336445472        6.9644018621        7.1710302465  CLST      78              1.0000000000
       388        78  DCM       H2             -7.0405365904        6.2026205432        8.8042798275  CLST      78              1.0000000000
       389        78  DCM       CL1            -5.8108188784        8.2469602146        8.9626012548  CLST      78              1.0000000000
       390        78  DCM       CL2            -4.8730884151        5.6754886879        7.9336850048  CLST      78              1.0000000000
       391        79  DCM       C              -6.8403917134       -3.8395375727       -6.1397624912  CLST      79              1.0000000000
       392        79  DCM       H1             -6.8657249828       -3.4699994631       -5.0915130995  CLST      79              1.0000000000
       393        79  DCM       H2             -7.8268276130       -4.2517737152       -6.4374284339  CLST      79              1.0000000000
       394        79  DCM       CL1            -5.6059702456       -5.1253837849       -6.2800717308  CLST      79              1.0000000000
       395        79  DCM       CL2            -6.4214363163       -2.4815304569       -7.2235416742  CLST      79              1.0000000000
       396        80  DCM       C              -8.3056160159        3.2075411393        0.6433767323  CLST      80              1.0000000000
       397        80  DCM       H1             -8.3566283197        2.2902173939        0.0194800300  CLST      80              1.0000000000
       398        80  DCM       H2             -7.3007422252        3.6757850681        0.5815194261  CLST      80              1.0000000000
       399        80  DCM       CL1            -9.5293067381        4.3764881532        0.0702178499  CLST      80              1.0000000000
       400        80  DCM       CL2            -8.6423289334        2.7720485383        2.3423676080  CLST      80              1.0000000000
       401        81  DCM       C              -8.2068516567       -0.9865032216       -1.5530795768  CLST      81              1.0000000000
       402        81  DCM       H1             -9.0239260508       -0.7972151383       -0.8267269083  CLST      81              1.0000000000
       403        81  DCM       H2             -7.8915324163       -0.0468666765       -2.0527519400  CLST      81              1.0000000000
       404        81  DCM       CL1            -6.8077510715       -1.6765760413       -0.6851625134  CLST      81              1.0000000000
       405        81  DCM       CL2            -8.7829920791       -2.1415405772       -2.7888343341  CLST      81              1.0000000000
       406        82  DCM       C              -1.1560041704        2.6813343324        1.7259428505  CLST      82              1.0000000000
       407        82  DCM       H1             -0.5033216077        2.9264368975        0.8625997799  CLST      82              1.0000000000
       408        82  DCM       H2             -0.5739769418        2.2225764070        2.5534943806  CLST      82              1.0000000000
       409        82  DCM       CL1            -1.9209875112        4.1801327905        2.3139456365  CLST      82              1.0000000000
       410        82  DCM       CL2            -2.4248117927        1.5398659962        1.2029521520  CLST      82              1.0000000000
       411        83  DCM       C              -3.1741607734       -2.8276561543       -5.3637905814  CLST      83              1.0000000000
       412        83  DCM       H1             -4.0374922038       -2.7774266234       -4.6691361848  CLST      83              1.0000000000
       413        83  DCM       H2             -3.5062406730       -3.0497168330       -6.3981815470  CLST      83              1.0000000000
       414        83  DCM       CL1            -2.3204304044       -1.2600844230       -5.3570736462  CLST      83              1.0000000000
       415        83  DCM       CL2            -2.0798208689       -4.1259469089       -4.8171353813  CLST      83              1.0000000000
       416        84  DCM       C              -0.2540590384        5.0210919268        6.1414518915  CLST      84              1.0000000000
       417        84  DCM       H1             -0.2876057935        4.5249338038        7.1341950628  CLST      84              1.0000000000
       418        84  DCM       H2              0.3368765782        5.9605083556        6.1817007813  CLST      84              1.0000000000
       419        84  DCM       CL1             0.5032999616        3.9114203790        4.9608077286  CLST      84              1.0000000000
       420        84  DCM       CL2            -1.9237499471        5.4094752653        5.6344566753  CLST      84              1.0000000000
       421        85  DCM       C               2.7203891213       -2.2000265987        4.6564512601  CLST      85              1.0000000000
       422        85  DCM       H1              3.1720496693       -2.1788670710        5.6740815839  CLST      85              1.0000000000
       423        85  DCM       H2              3.3751278661       -2.7444109552        3.9449595211  CLST      85              1.0000000000
       424        85  DCM       CL1             1.1345940113       -3.0213917755        4.7373073456  CLST      85              1.0000000000
       425        85  DCM       CL2             2.5054983297       -0.5203235594        4.0868918903  CLST      85              1.0000000000
       426        86  DCM       C               2.0349124593        3.7070080757       -1.9790289199  CLST      86              1.0000000000
       427        86  DCM       H1              1.0303571742        4.0068202815       -1.6102740934  CLST      86              1.0000000000
       428        86  DCM       H2              2.1555488526        2.6053306917       -1.9579794847  CLST      86              1.0000000000
       429        86  DCM       CL1             3.2914166857        4.4518363423       -0.9491510980  CLST      86              1.0000000000
       430        86  DCM       CL2             2.2290533147        4.2633777331       -3.6626069002  CLST      86              1.0000000000
       431        87  DCM       C               9.3981536362       -3.0280085879        7.4336105976  CLST      87              1.0000000000
       432        87  DCM       H1              9.5747082234       -3.4492074786        6.4217199178  CLST      87              1.0000000000
       433        87  DCM       H2              8.3222722970       -2.8045547807        7.5919451088  CLST      87              1.0000000000
       434        87  DCM       CL1             9.9301790819       -4.2183175334        8.6557053516  CLST      87              1.0000000000
       435        87  DCM       CL2            10.3358864731       -1.5148984289        7.5994002074  CLST      87              1.0000000000
       436        88  DCM       C             -11.8764241438       -9.4481421429       -1.7647623720  CLST      88              1.0000000000
       437        88  DCM       H1            -11.8880346470       -9.8957827132       -0.7490264860  CLST      88              1.0000000000
       438        88  DCM       H2            -12.8874942813       -9.4754252672       -2.2237073806  CLST      88              1.0000000000
       439        88  DCM       CL1           -11.3382500449       -7.7490680345       -1.6452680311  CLST      88              1.0000000000
       440        88  DCM       CL2           -10.7436515478      -10.3689001777       -2.7953127724  CLST      88              1.0000000000
       441        89  DCM       C               7.6811791666        5.2962403591       -0.0963522390  CLST      89              1.0000000000
       442        89  DCM       H1              7.9533358173        5.2532663008       -1.1724841651  CLST      89              1.0000000000
       443        89  DCM       H2              6.6022788208        5.0746496016        0.0514808546  CLST      89              1.0000000000
       444        89  DCM       CL1             8.6550848660        4.0921029713        0.7926700565  CLST      89              1.0000000000
       445        89  DCM       CL2             8.0329147235        6.9338213192        0.5221425683  CLST      89              1.0000000000
       446        90  DCM       C               7.2716945603        3.0355776422       -7.9983052536  CLST      90              1.0000000000
       447        90  DCM       H1              6.6075324095        3.8997211403       -7.7925166657  CLST      90              1.0000000000
       448        90  DCM       H2              7.9757179916        3.2592325564       -8.8272184181  CLST      90              1.0000000000
       449        90  DCM       CL1             8.2134180082        2.6664092808       -6.5237882654  CLST      90              1.0000000000
       450        90  DCM       CL2             6.2692558248        1.6253381016       -8.4517505640  CLST      90              1.0000000000
       451        91  DCM       C              -9.1966095916      -11.8616565656        0.2575114219  CLST      91              1.0000000000
       452        91  DCM       H1             -8.5596034078      -12.0460465430        1.1484089970  CLST      91              1.0000000000
       453        91  DCM       H2             -9.1910276841      -10.7867569737       -0.0228964520  CLST      91              1.0000000000
       454        91  DCM       CL1            -8.5743289512      -12.8271694826       -1.1119242746  CLST      91              1.0000000000
       455        91  DCM       CL2           -10.8726152897      -12.3547543903        0.6324918072  CLST      91              1.0000000000
       456        92  DCM       C               4.6492751793       -9.0234192695       -6.1420798946  CLST      92              1.0000000000
       457        92  DCM       H1              5.1727374852       -9.2345041709       -7.0984779873  CLST      92              1.0000000000
       458        92  DCM       H2              3.6638713962       -9.5334206434       -6.1027318924  CLST      92              1.0000000000
       459        92  DCM       CL1             5.6576752359       -9.6010140321       -4.7840505185  CLST      92              1.0000000000
       460        92  DCM       CL2             4.3965328161       -7.2618084292       -5.9996618168  CLST      92              1.0000000000
       461        93  DCM       C               1.3137538198       -5.7787817743        2.4582780549  CLST      93              1.0000000000
       462        93  DCM       H1              0.5542263792       -5.0556030656        2.0950877510  CLST      93              1.0000000000
       463        93  DCM       H2              2.1946196748       -5.2504193992        2.8802107452  CLST      93              1.0000000000
       464        93  DCM       CL1             1.8424218552       -6.7962332729        1.0922137332  CLST      93              1.0000000000
       465        93  DCM       CL2             0.5863848661       -6.8043047524        3.7256961321  CLST      93              1.0000000000
       466        94  DCM       C              10.3419375590        6.6742797666        9.2784975925  CLST      94              1.0000000000
       467        94  DCM       H1             10.6103341317        6.4725031854        8.2201317048  CLST      94              1.0000000000
       468        94  DCM       H2             11.0794074997        7.3541147326        9.7552392463  CLST      94              1.0000000000
       469        94  DCM       CL1            10.3111245081        5.1289993193       10.1762186971  CLST      94              1.0000000000
       470        94  DCM       CL2             8.7253682887        7.4360735022        9.3317327300  CLST      94              1.0000000000
       471        95  DCM       C              -2.6568871535       -5.7192713410        2.3829946028  CLST      95              1.0000000000
       472        95  DCM       H1             -3.4544654387       -5.5065267499        1.6412827473  CLST      95              1.0000000000
       473        95  DCM       H2             -1.8003011755       -6.2430334947        1.9102866221  CLST      95              1.0000000000
       474        95  DCM       CL1            -3.3122719632       -6.7629719816        3.6681422557  CLST      95              1.0000000000
       475        95  DCM       CL2            -2.0824661913       -4.1851055405        3.0935737760  CLST      95              1.0000000000
       476        96  DCM       C              -0.2062815337       -5.6583206040       -2.0229569702  CLST      96              1.0000000000
       477        96  DCM       H1             -0.1367831856       -4.8247783797       -2.7491307630  CLST      96              1.0000000000
       478        96  DCM       H2              0.7998742928       -6.0275716931       -1.7353826818  CLST      96              1.0000000000
       479        96  DCM       CL1            -1.0472666116       -5.0642358595       -0.5694378139  CLST      96              1.0000000000
       480        96  DCM       CL2            -1.1240550714       -6.9975933017       -2.7630227886  CLST      96              1.0000000000
       481        97  DCM       C             -12.0750509891        1.3883584486        1.2914244552  CLST      97              1.0000000000
       482        97  DCM       H1            -12.8915018745        2.1180553098        1.1038121687  CLST      97              1.0000000000
       483        97  DCM       H2            -11.3225099193        1.8066577258        1.9904082659  CLST      97              1.0000000000
       484        97  DCM       CL1           -11.2737466586        0.9934116780       -0.2569827226  CLST      97              1.0000000000
       485        97  DCM       CL2           -12.7680375487       -0.0929583433        2.0126125684  CLST      97              1.0000000000
       486        98  DCM       C              -0.4515118238        5.5271161662       -9.0031332970  CLST      98              1.0000000000
       487        98  DCM       H1             -0.7870725839        5.8465849017       -7.9945505828  CLST      98              1.0000000000
       488        98  DCM       H2              0.6094821811        5.2030315131       -8.9805787269  CLST      98              1.0000000000
       489        98  DCM       CL1            -1.4650959813        4.1611264406       -9.5513896451  CLST      98              1.0000000000
       490        98  DCM       CL2            -0.6142533531        6.8999772556      -10.1339356758  CLST      98              1.0000000000
