* CHARMM CGENFF SD/ABNR BEFORE MLPOT (MM ONLY)
*  DATE:     6/28/26      2: 2:14      CREATED BY USER: boittier
*
       460  EXT
         1         1  DCM       C               1.4143621892       -9.0653255735        8.9899543169  CLST      1               1.0000000000
         2         1  DCM       H1              1.4819057134      -10.0747181756        8.5245157838  CLST      1               1.0000000000
         3         1  DCM       H2              0.4312701774       -8.9173354295        9.4783737556  CLST      1               1.0000000000
         4         1  DCM       CL1             2.7045902129       -8.9024715404       10.2152570902  CLST      1               1.0000000000
         5         1  DCM       CL2             1.6202757257       -7.8259668731        7.7205819361  CLST      1               1.0000000000
         6         2  DCM       C               0.4041804445        3.3296296984       10.5160537535  CLST      2               1.0000000000
         7         2  DCM       H1              1.5034292244        3.2242724655       10.3992016374  CLST      2               1.0000000000
         8         2  DCM       H2              0.0971490944        3.1387903756       11.5660057310  CLST      2               1.0000000000
         9         2  DCM       CL1            -0.0735570543        4.9890313049       10.0565302613  CLST      2               1.0000000000
        10         2  DCM       CL2            -0.4087038314        2.1519753512        9.4455390350  CLST      2               1.0000000000
        11         3  DCM       C               4.6358168896       10.4071910342        9.5517802374  CLST      3               1.0000000000
        12         3  DCM       H1              4.6162031974       10.0602663578        8.4949604649  CLST      3               1.0000000000
        13         3  DCM       H2              5.4587975861       11.1341228813        9.7115722110  CLST      3               1.0000000000
        14         3  DCM       CL1             3.0772898885       11.1926726038        9.9399160629  CLST      3               1.0000000000
        15         3  DCM       CL2             4.8849500153        8.9969343611       10.6219930234  CLST      3               1.0000000000
        16         4  DCM       C               5.3771479828       -8.4905148858        1.6404696846  CLST      4               1.0000000000
        17         4  DCM       H1              4.9164715939       -8.8065001416        0.6806623217  CLST      4               1.0000000000
        18         4  DCM       H2              6.2999626967       -9.0709996131        1.8488869694  CLST      4               1.0000000000
        19         4  DCM       CL1             5.7825833204       -6.7540367990        1.5458517658  CLST      4               1.0000000000
        20         4  DCM       CL2             4.2133812575       -8.7633812982        2.9649656868  CLST      4               1.0000000000
        21         5  DCM       C               2.7624168109        9.4834369530       -8.6253788368  CLST      5               1.0000000000
        22         5  DCM       H1              1.8460400129        8.8891317539       -8.8218543140  CLST      5               1.0000000000
        23         5  DCM       H2              3.2636586446        9.1422274080       -7.6948621901  CLST      5               1.0000000000
        24         5  DCM       CL1             3.8863922673        9.2856146021       -9.9998641827  CLST      5               1.0000000000
        25         5  DCM       CL2             2.3157443312       11.2051333796       -8.4493310648  CLST      5               1.0000000000
        26         6  DCM       C               0.5034888959        8.3967021958        2.1170337383  CLST      6               1.0000000000
        27         6  DCM       H1              1.4989371921        8.8273977628        1.8739206788  CLST      6               1.0000000000
        28         6  DCM       H2              0.1274163571        8.7841701428        3.0860948400  CLST      6               1.0000000000
        29         6  DCM       CL1             0.6501318026        6.6181153214        2.2113404893  CLST      6               1.0000000000
        30         6  DCM       CL2            -0.6545803808        8.8407976360        0.8316003838  CLST      6               1.0000000000
        31         7  DCM       C               3.5529067454       -0.7490061096        5.7043886220  CLST      7               1.0000000000
        32         7  DCM       H1              4.6473869200       -0.7040030301        5.8918904264  CLST      7               1.0000000000
        33         7  DCM       H2              3.3100411332       -0.3903630131        4.6824801473  CLST      7               1.0000000000
        34         7  DCM       CL1             2.9930095297       -2.4374767793        5.8794839869  CLST      7               1.0000000000
        35         7  DCM       CL2             2.7156439823        0.2835786269        6.8939840297  CLST      7               1.0000000000
        36         8  DCM       C               2.3457787506        7.7648156072       -1.2531204617  CLST      8               1.0000000000
        37         8  DCM       H1              1.3541168649        7.4226945845       -0.8892483250  CLST      8               1.0000000000
        38         8  DCM       H2              2.5163735172        7.4420376195       -2.3033541256  CLST      8               1.0000000000
        39         8  DCM       CL1             2.4167880758        9.5491394387       -1.1777999576  CLST      8               1.0000000000
        40         8  DCM       CL2             3.6203965176        7.0679697761       -0.2145788716  CLST      8               1.0000000000
        41         9  DCM       C              -4.4589995760        8.7126338440        3.0948918741  CLST      9               1.0000000000
        42         9  DCM       H1             -5.3731639488        8.1156024946        3.2765793110  CLST      9               1.0000000000
        43         9  DCM       H2             -4.5231348558        9.7031511918        3.5976151876  CLST      9               1.0000000000
        44         9  DCM       CL1            -3.0501782933        7.8237182474        3.7405228392  CLST      9               1.0000000000
        45         9  DCM       CL2            -4.2693751263        8.9631268994        1.3366343750  CLST      9               1.0000000000
        46        10  DCM       C              -9.8871627728       -5.4515988068       -5.0512335600  CLST      10              1.0000000000
        47        10  DCM       H1            -10.0655746591       -4.3938570201       -5.3388828540  CLST      10              1.0000000000
        48        10  DCM       H2             -9.9887111281       -6.1280955236       -5.9269385576  CLST      10              1.0000000000
        49        10  DCM       CL1            -8.2347963620       -5.6060658262       -4.3891794438  CLST      10              1.0000000000
        50        10  DCM       CL2           -11.0793465406       -5.9300049945       -3.8076977626  CLST      10              1.0000000000
        51        11  DCM       C              -6.5017516172        3.6678793584       -2.2369187857  CLST      11              1.0000000000
        52        11  DCM       H1             -6.5872206628        4.5183548057       -1.5287571887  CLST      11              1.0000000000
        53        11  DCM       H2             -7.5043269206        3.3080584535       -2.5515210364  CLST      11              1.0000000000
        54        11  DCM       CL1            -5.5930214706        4.2052305881       -3.6779664072  CLST      11              1.0000000000
        55        11  DCM       CL2            -5.6271278149        2.3333400088       -1.4330512163  CLST      11              1.0000000000
        56        12  DCM       C              -8.9605901250        0.6075615239       -1.0691054755  CLST      12              1.0000000000
        57        12  DCM       H1             -9.4372274104       -0.1834094604       -0.4527390714  CLST      12              1.0000000000
        58        12  DCM       H2             -8.3210008556        1.2662548840       -0.4462516364  CLST      12              1.0000000000
        59        12  DCM       CL1            -7.9501418139       -0.1620627839       -2.3251308346  CLST      12              1.0000000000
        60        12  DCM       CL2           -10.2349527266        1.5971843071       -1.8342168264  CLST      12              1.0000000000
        61        13  DCM       C              -7.9997177190       -3.0192677030        3.7805722066  CLST      13              1.0000000000
        62        13  DCM       H1             -7.4735069414       -2.6981494456        2.8566046913  CLST      13              1.0000000000
        63        13  DCM       H2             -7.9567717865       -4.1223904812        3.9012866771  CLST      13              1.0000000000
        64        13  DCM       CL1            -7.2184577320       -2.2479243829        5.1914389290  CLST      13              1.0000000000
        65        13  DCM       CL2            -9.7108541826       -2.5112150715        3.6815494716  CLST      13              1.0000000000
        66        14  DCM       C              -5.0543857101      -12.4829633293        8.3004565190  CLST      14              1.0000000000
        67        14  DCM       H1             -4.7902537696      -11.4085152795        8.4039920467  CLST      14              1.0000000000
        68        14  DCM       H2             -5.9818858102      -12.6092477419        7.7045388425  CLST      14              1.0000000000
        69        14  DCM       CL1            -5.3087271150      -13.1777153971        9.9278210308  CLST      14              1.0000000000
        70        14  DCM       CL2            -3.7165480942      -13.3377306219        7.4785509576  CLST      14              1.0000000000
        71        15  DCM       C               6.1513567898       -6.2212454880        9.5539658796  CLST      15              1.0000000000
        72        15  DCM       H1              6.3548179776       -5.3328937464       10.1869709471  CLST      15              1.0000000000
        73        15  DCM       H2              6.1210165800       -7.1491584237       10.1637030227  CLST      15              1.0000000000
        74        15  DCM       CL1             4.5742911663       -6.0016684924        8.7451394235  CLST      15              1.0000000000
        75        15  DCM       CL2             7.4465286645       -6.3678049089        8.3313480137  CLST      15              1.0000000000
        76        16  DCM       C               8.9411153486        8.5450518201        3.9534648847  CLST      16              1.0000000000
        77        16  DCM       H1              8.5180126768        9.3518073594        3.3195793128  CLST      16              1.0000000000
        78        16  DCM       H2              9.7637343538        8.0179073471        3.4309456223  CLST      16              1.0000000000
        79        16  DCM       CL1             9.5839335818        9.2625295759        5.4587163548  CLST      16              1.0000000000
        80        16  DCM       CL2             7.6475015214        7.3732179489        4.3353893131  CLST      16              1.0000000000
        81        17  DCM       C              -0.9223447623       11.6294040617        9.7204056910  CLST      17              1.0000000000
        82        17  DCM       H1             -0.1000543852       11.8428993702       10.4357094465  CLST      17              1.0000000000
        83        17  DCM       H2             -1.8683260164       11.3972561393       10.2541333037  CLST      17              1.0000000000
        84        17  DCM       CL1            -1.1770371180       13.0566455424        8.6755966188  CLST      17              1.0000000000
        85        17  DCM       CL2            -0.4653067771       10.2261909667        8.7164120284  CLST      17              1.0000000000
        86        18  DCM       C               4.2621822467       10.8564009834       -5.0800401837  CLST      18              1.0000000000
        87        18  DCM       H1              4.3567656541       11.5382143862       -5.9502797180  CLST      18              1.0000000000
        88        18  DCM       H2              4.6981069766       11.3112270005       -4.1644281157  CLST      18              1.0000000000
        89        18  DCM       CL1             2.5303889636       10.5228516925       -4.7938580818  CLST      18              1.0000000000
        90        18  DCM       CL2             5.1219136269        9.3300645867       -5.4368542915  CLST      18              1.0000000000
        91        19  DCM       C               4.0816190003        5.4035353886       12.1858219681  CLST      19              1.0000000000
        92        19  DCM       H1              4.7343316787        4.5511806197       12.4750104264  CLST      19              1.0000000000
        93        19  DCM       H2              4.5511753002        6.3752457150       12.4460338456  CLST      19              1.0000000000
        94        19  DCM       CL1             3.8078116555        5.3487396195       10.4228377265  CLST      19              1.0000000000
        95        19  DCM       CL2             2.5200048978        5.2602958828       13.0434682645  CLST      19              1.0000000000
        96        20  DCM       C              -8.2046963440        0.9316495139        3.1091098737  CLST      20              1.0000000000
        97        20  DCM       H1             -7.8686228002        1.9631528904        3.3426692427  CLST      20              1.0000000000
        98        20  DCM       H2             -8.2422375655        0.3081442536        4.0275477326  CLST      20              1.0000000000
        99        20  DCM       CL1            -9.8398092734        0.9956882419        2.3871105211  CLST      20              1.0000000000
       100        20  DCM       CL2            -7.0564951747        0.1966476342        1.9523525510  CLST      20              1.0000000000
       101        21  DCM       C             -11.7148607425        2.9365034522       -9.2837808897  CLST      21              1.0000000000
       102        21  DCM       H1            -11.0887071164        2.7107840318      -10.1724914937  CLST      21              1.0000000000
       103        21  DCM       H2            -12.4799507991        3.7074863896       -9.5162388667  CLST      21              1.0000000000
       104        21  DCM       CL1           -12.5395474807        1.4398090803       -8.7584974289  CLST      21              1.0000000000
       105        21  DCM       CL2           -10.6645448917        3.5460366320       -7.9726858024  CLST      21              1.0000000000
       106        22  DCM       C               6.2646845475       11.1788184026        5.2879834989  CLST      22              1.0000000000
       107        22  DCM       H1              5.7055121244       12.0086769077        4.8019512947  CLST      22              1.0000000000
       108        22  DCM       H2              7.1311144070       10.8706308670        4.6706255696  CLST      22              1.0000000000
       109        22  DCM       CL1             5.1681129064        9.7836614062        5.4942428445  CLST      22              1.0000000000
       110        22  DCM       CL2             6.8551317651       11.7238563628        6.8840618701  CLST      22              1.0000000000
       111        23  DCM       C              -9.9629796789        9.1100362522        6.4982869842  CLST      23              1.0000000000
       112        23  DCM       H1            -10.9643688690        9.2662459764        6.0445410981  CLST      23              1.0000000000
       113        23  DCM       H2             -9.9596666268        9.3997526186        7.5705117361  CLST      23              1.0000000000
       114        23  DCM       CL1            -9.5274932982        7.3814879337        6.3625436175  CLST      23              1.0000000000
       115        23  DCM       CL2            -8.7671859995       10.1101450705        5.6227885156  CLST      23              1.0000000000
       116        24  DCM       C              -1.8660195274       10.7686875850        5.5245185264  CLST      24              1.0000000000
       117        24  DCM       H1             -1.4614993889        9.7347465913        5.5843385891  CLST      24              1.0000000000
       118        24  DCM       H2             -1.2176744109       11.4821135654        6.0716491953  CLST      24              1.0000000000
       119        24  DCM       CL1            -1.9447309367       11.2668199203        3.8095917929  CLST      24              1.0000000000
       120        24  DCM       CL2            -3.4998550179       10.7956565251        6.2496129857  CLST      24              1.0000000000
       121        25  DCM       C              -6.0364351403        6.1673176028        6.1767036836  CLST      25              1.0000000000
       122        25  DCM       H1             -5.0748608590        5.7190870590        6.5038530960  CLST      25              1.0000000000
       123        25  DCM       H2             -6.8682889994        5.8615796239        6.8453348965  CLST      25              1.0000000000
       124        25  DCM       CL1            -5.8848204769        7.9465994079        6.2127532452  CLST      25              1.0000000000
       125        25  DCM       CL2            -6.3985048826        5.6255919300        4.5120389244  CLST      25              1.0000000000
       126        26  DCM       C             -10.1050218610      -10.0208141010       -3.6756742357  CLST      26              1.0000000000
       127        26  DCM       H1            -10.9763180201      -10.0825377052       -2.9900522268  CLST      26              1.0000000000
       128        26  DCM       H2             -9.6878982700      -11.0290269171       -3.8844091350  CLST      26              1.0000000000
       129        26  DCM       CL1           -10.6294091759       -9.2763942503       -5.2140563056  CLST      26              1.0000000000
       130        26  DCM       CL2            -8.8393327275       -9.0139998478       -2.9148067058  CLST      26              1.0000000000
       131        27  DCM       C               3.7065214093       -3.4998695878       -1.8413676946  CLST      27              1.0000000000
       132        27  DCM       H1              4.0920825186       -2.6636529590       -2.4613360516  CLST      27              1.0000000000
       133        27  DCM       H2              3.4073195031       -4.3633930964       -2.4736064915  CLST      27              1.0000000000
       134        27  DCM       CL1             4.9889347924       -4.0244702098       -0.7146909410  CLST      27              1.0000000000
       135        27  DCM       CL2             2.2860150757       -2.9341506834       -0.9158669413  CLST      27              1.0000000000
       136        28  DCM       C               3.6244371420        0.6149604405       -0.1792965525  CLST      28              1.0000000000
       137        28  DCM       H1              3.0865416986       -0.0528204956        0.5256802954  CLST      28              1.0000000000
       138        28  DCM       H2              3.9059740702        1.5709355433        0.3120360837  CLST      28              1.0000000000
       139        28  DCM       CL1             2.5548065298        0.9646869752       -1.5676547079  CLST      28              1.0000000000
       140        28  DCM       CL2             5.1046732463       -0.2098605870       -0.7505646387  CLST      28              1.0000000000
       141        29  DCM       C              -5.1773688724      -10.5505326292       12.5257107323  CLST      29              1.0000000000
       142        29  DCM       H1             -5.4882160163       -9.9173680562       13.3836556781  CLST      29              1.0000000000
       143        29  DCM       H2             -5.8823649953      -11.3954578684       12.3782389851  CLST      29              1.0000000000
       144        29  DCM       CL1            -5.1487080505       -9.5511120478       11.0436714834  CLST      29              1.0000000000
       145        29  DCM       CL2            -3.5461116629      -11.2079015507       12.8445054079  CLST      29              1.0000000000
       146        30  DCM       C               6.2519883360        6.7622581749        7.7150628414  CLST      30              1.0000000000
       147        30  DCM       H1              5.8368699542        6.8277896130        6.6894421789  CLST      30              1.0000000000
       148        30  DCM       H2              5.4427838904        6.7639326115        8.4759857229  CLST      30              1.0000000000
       149        30  DCM       CL1             7.1876104647        5.2492165265        7.8769991052  CLST      30              1.0000000000
       150        30  DCM       CL2             7.3149725643        8.1670743605        8.0127411829  CLST      30              1.0000000000
       151        31  DCM       C               4.7646854611        5.6516860838        2.8881962991  CLST      31              1.0000000000
       152        31  DCM       H1              5.5299514957        5.2027046098        3.5539894434  CLST      31              1.0000000000
       153        31  DCM       H2              5.2378823731        6.0858594700        1.9841298188  CLST      31              1.0000000000
       154        31  DCM       CL1             3.6086477283        4.3799216918        2.3849898141  CLST      31              1.0000000000
       155        31  DCM       CL2             3.9027744935        6.9415054755        3.7755153423  CLST      31              1.0000000000
       156        32  DCM       C             -11.3872868562        4.5443888469        4.4954610410  CLST      32              1.0000000000
       157        32  DCM       H1            -11.7909980517        4.0041054248        5.3767752798  CLST      32              1.0000000000
       158        32  DCM       H2            -11.5308938965        5.6414044438        4.5968442003  CLST      32              1.0000000000
       159        32  DCM       CL1            -9.6400665864        4.2003534226        4.3548393509  CLST      32              1.0000000000
       160        32  DCM       CL2           -12.2352203081        3.9797243091        3.0267260040  CLST      32              1.0000000000
       161        33  DCM       C              -0.9172716089       10.5463288614      -10.1397885230  CLST      33              1.0000000000
       162        33  DCM       H1             -0.4949256377       11.5114141001       -9.7868551034  CLST      33              1.0000000000
       163        33  DCM       H2             -1.9085793378       10.6926602455      -10.6149095635  CLST      33              1.0000000000
       164        33  DCM       CL1             0.2012199396        9.8255633666      -11.3350646592  CLST      33              1.0000000000
       165        33  DCM       CL2            -1.0983543107        9.4477029091       -8.7399229227  CLST      33              1.0000000000
       166        34  DCM       C              -7.2958170067      -12.7175455614       -6.3130954673  CLST      34              1.0000000000
       167        34  DCM       H1             -6.5856365651      -12.1793203821       -6.9759071176  CLST      34              1.0000000000
       168        34  DCM       H2             -7.2537263627      -13.8128067638       -6.4912363801  CLST      34              1.0000000000
       169        34  DCM       CL1            -6.8732620335      -12.3837073623       -4.6080043442  CLST      34              1.0000000000
       170        34  DCM       CL2            -8.9531082886      -12.1392043561       -6.6481657558  CLST      34              1.0000000000
       171        35  DCM       C              10.2912785397        1.2016549446       -0.1698323674  CLST      35              1.0000000000
       172        35  DCM       H1             11.0603370330        0.7662896303       -0.8419320487  CLST      35              1.0000000000
       173        35  DCM       H2             10.1823831604        0.5965784868        0.7560813119  CLST      35              1.0000000000
       174        35  DCM       CL1            10.7841591427        2.8624678221        0.2701148219  CLST      35              1.0000000000
       175        35  DCM       CL2             8.7246656088        1.2407660942       -1.0298909936  CLST      35              1.0000000000
       176        36  DCM       C               7.9974365033      -11.9623869152       -9.1975665412  CLST      36              1.0000000000
       177        36  DCM       H1              8.5220081220      -12.5003836469       -8.3731621164  CLST      36              1.0000000000
       178        36  DCM       H2              7.7599691205      -12.6491817030      -10.0322100218  CLST      36              1.0000000000
       179        36  DCM       CL1             6.4793438560      -11.2668671213       -8.5602851543  CLST      36              1.0000000000
       180        36  DCM       CL2             9.0586859728      -10.6564128157       -9.8007539326  CLST      36              1.0000000000
       181        37  DCM       C               3.0896826569       12.0602707668      -12.3558473805  CLST      37              1.0000000000
       182        37  DCM       H1              2.6356510801       11.7121423274      -11.4023438222  CLST      37              1.0000000000
       183        37  DCM       H2              2.4404435024       12.8067019356      -12.8576832084  CLST      37              1.0000000000
       184        37  DCM       CL1             3.3087273048       10.6565154566      -13.4401233727  CLST      37              1.0000000000
       185        37  DCM       CL2             4.6734658712       12.8082640579      -12.0011715367  CLST      37              1.0000000000
       186        38  DCM       C               5.4368516528       -9.1598593441        7.0846291727  CLST      38              1.0000000000
       187        38  DCM       H1              4.5798826101       -8.4694125000        7.2226572833  CLST      38              1.0000000000
       188        38  DCM       H2              6.3037893501       -8.6335976901        6.6340017111  CLST      38              1.0000000000
       189        38  DCM       CL1             5.9190403034       -9.8162541154        8.6754316428  CLST      38              1.0000000000
       190        38  DCM       CL2             4.9358940936      -10.4939821066        6.0073426118  CLST      38              1.0000000000
       191        39  DCM       C              -4.3234861625        5.1568248715        1.2160799991  CLST      39              1.0000000000
       192        39  DCM       H1             -4.7746631111        5.8200195911        1.9837947983  CLST      39              1.0000000000
       193        39  DCM       H2             -4.8047886711        5.3041196322        0.2279047688  CLST      39              1.0000000000
       194        39  DCM       CL1            -2.5824564739        5.5336306546        1.0781157598  CLST      39              1.0000000000
       195        39  DCM       CL2            -4.5313110706        3.4549346863        1.7211104819  CLST      39              1.0000000000
       196        40  DCM       C               8.9274688193        3.9811176752        3.2102100004  CLST      40              1.0000000000
       197        40  DCM       H1              9.4243373784        4.9655688262        3.3287007851  CLST      40              1.0000000000
       198        40  DCM       H2              9.6708687746        3.1738879307        3.0405283429  CLST      40              1.0000000000
       199        40  DCM       CL1             8.0141791528        3.6166505682        4.6997774070  CLST      40              1.0000000000
       200        40  DCM       CL2             7.8074342665        4.0590105573        1.8183504001  CLST      40              1.0000000000
       201        41  DCM       C              -8.7764979787        0.9211469196       -6.4405472741  CLST      41              1.0000000000
       202        41  DCM       H1             -9.7877118427        1.0005441501       -6.8939511623  CLST      41              1.0000000000
       203        41  DCM       H2             -7.9844200659        1.1006769957       -7.1970291432  CLST      41              1.0000000000
       204        41  DCM       CL1            -8.6303407936        2.1373517357       -5.1386072673  CLST      41              1.0000000000
       205        41  DCM       CL2            -8.5722789615       -0.7211085685       -5.7698092885  CLST      41              1.0000000000
       206        42  DCM       C               1.6871861027       -5.5544004520       11.0914493261  CLST      42              1.0000000000
       207        42  DCM       H1              1.0456286915       -6.2238505763       10.4813723075  CLST      42              1.0000000000
       208        42  DCM       H2              2.7306213567       -5.9317066834       11.1311223555  CLST      42              1.0000000000
       209        42  DCM       CL1             1.0387118808       -5.4767109678       12.7548253578  CLST      42              1.0000000000
       210        42  DCM       CL2             1.6869395787       -3.9224452915       10.3609061742  CLST      42              1.0000000000
       211        43  DCM       C              11.8384270139       -6.7946361083       -0.9790555884  CLST      43              1.0000000000
       212        43  DCM       H1             11.6826200616       -6.8225659263        0.1205977725  CLST      43              1.0000000000
       213        43  DCM       H2             11.4404624256       -7.7117730113       -1.4617979987  CLST      43              1.0000000000
       214        43  DCM       CL1            10.9922058423       -5.3715326134       -1.6508029851  CLST      43              1.0000000000
       215        43  DCM       CL2            13.5880044169       -6.6732106799       -1.3207724314  CLST      43              1.0000000000
       216        44  DCM       C              -2.6448371167        7.3369866286        9.0477961151  CLST      44              1.0000000000
       217        44  DCM       H1             -3.0972155689        6.4087035812        9.4546328999  CLST      44              1.0000000000
       218        44  DCM       H2             -1.6519149041        7.5315785502        9.5064741228  CLST      44              1.0000000000
       219        44  DCM       CL1            -2.4440177285        7.1588192550        7.2826612393  CLST      44              1.0000000000
       220        44  DCM       CL2            -3.7252125161        8.7172176823        9.3945142379  CLST      44              1.0000000000
       221        45  DCM       C              -6.8952569588       10.4062955116        8.8841525845  CLST      45              1.0000000000
       222        45  DCM       H1             -6.0863993319       10.7044890448        9.5838247550  CLST      45              1.0000000000
       223        45  DCM       H2             -6.5212404299       10.3654740224        7.8389498970  CLST      45              1.0000000000
       224        45  DCM       CL1            -7.5024010392        8.7902970307        9.3516463809  CLST      45              1.0000000000
       225        45  DCM       CL2            -8.2197799387       11.6026549795        8.9828075596  CLST      45              1.0000000000
       226        46  DCM       C               9.2530085658        6.8454651587       -0.1474499282  CLST      46              1.0000000000
       227        46  DCM       H1              8.9847027403        5.8678681042       -0.6074235814  CLST      46              1.0000000000
       228        46  DCM       H2              9.6211212241        7.5604721152       -0.9103337101  CLST      46              1.0000000000
       229        46  DCM       CL1             7.8024232928        7.5303437753        0.6416827534  CLST      46              1.0000000000
       230        46  DCM       CL2            10.5385461196        6.5791954172        1.0654771144  CLST      46              1.0000000000
       231        47  DCM       C              -8.1744769671      -11.8980777618      -10.2386140264  CLST      47              1.0000000000
       232        47  DCM       H1             -9.1102628807      -11.6460511406       -9.6984577848  CLST      47              1.0000000000
       233        47  DCM       H2             -8.3009099860      -11.7766544941      -11.3364778265  CLST      47              1.0000000000
       234        47  DCM       CL1            -6.8708601425      -10.8096899660       -9.6810701727  CLST      47              1.0000000000
       235        47  DCM       CL2            -7.7362667443      -13.5958988390       -9.8875824136  CLST      47              1.0000000000
       236        48  DCM       C               7.0414647142       11.6699047183       -9.2121697875  CLST      48              1.0000000000
       237        48  DCM       H1              6.8766906104       11.6479339202      -10.3093684447  CLST      48              1.0000000000
       238        48  DCM       H2              7.9869377811       12.1974651912       -8.9634818752  CLST      48              1.0000000000
       239        48  DCM       CL1             5.6794401643       12.5253239790       -8.4350138001  CLST      48              1.0000000000
       240        48  DCM       CL2             7.1326006145        9.9919836513       -8.6046453704  CLST      48              1.0000000000
       241        49  DCM       C              11.8660530703       -5.8224170429       -5.4080384165  CLST      49              1.0000000000
       242        49  DCM       H1             12.1729268934       -5.9088276337       -6.4731933162  CLST      49              1.0000000000
       243        49  DCM       H2             12.7431258938       -5.6683386021       -4.7474707566  CLST      49              1.0000000000
       244        49  DCM       CL1            10.7575068273       -4.4303718244       -5.2384418816  CLST      49              1.0000000000
       245        49  DCM       CL2            11.0302367132       -7.3263995899       -4.9234219655  CLST      49              1.0000000000
       246        50  DCM       C               3.2864297276        0.0858329613       11.8920832357  CLST      50              1.0000000000
       247        50  DCM       H1              3.0167463691       -0.6889615234       12.6398142174  CLST      50              1.0000000000
       248        50  DCM       H2              4.3564953991        0.0086797035       11.6049935003  CLST      50              1.0000000000
       249        50  DCM       CL1             2.2771514794       -0.1376645167       10.4354688383  CLST      50              1.0000000000
       250        50  DCM       CL2             2.9895517527        1.7039622437       12.5894092159  CLST      50              1.0000000000
       251        51  DCM       C               4.8720425064       -2.2974166147        8.9001808441  CLST      51              1.0000000000
       252        51  DCM       H1              3.9848716666       -2.9172118344        8.6566265635  CLST      51              1.0000000000
       253        51  DCM       H2              4.6432976771       -1.2165854027        8.7859445974  CLST      51              1.0000000000
       254        51  DCM       CL1             5.3594781584       -2.6137655613       10.5897338081  CLST      51              1.0000000000
       255        51  DCM       CL2             6.2050148926       -2.7310805689        7.7918619126  CLST      51              1.0000000000
       256        52  DCM       C              -1.7869868076       -7.7698380126       12.1711335653  CLST      52              1.0000000000
       257        52  DCM       H1             -1.6426154914       -6.9544182405       12.9108375001  CLST      52              1.0000000000
       258        52  DCM       H2             -2.7469166463       -8.2993798686       12.3434795756  CLST      52              1.0000000000
       259        52  DCM       CL1            -1.7982937231       -7.0680854764       10.5268891782  CLST      52              1.0000000000
       260        52  DCM       CL2            -0.4422006360       -8.9379247810       12.3243728557  CLST      52              1.0000000000
       261        53  DCM       C               8.0734792442       -7.6760766819       -1.1062472408  CLST      53              1.0000000000
       262        53  DCM       H1              6.9824749373       -7.8799183463       -1.0529085239  CLST      53              1.0000000000
       263        53  DCM       H2              8.2666599552       -6.5913385526       -1.2384563262  CLST      53              1.0000000000
       264        53  DCM       CL1             8.8494621703       -8.2316340918        0.4032355037  CLST      53              1.0000000000
       265        53  DCM       CL2             8.7628968698       -8.5667606656       -2.4912685252  CLST      53              1.0000000000
       266        54  DCM       C              -1.3793811323      -11.9724143562       10.0737936004  CLST      54              1.0000000000
       267        54  DCM       H1             -0.9905490102      -11.7133035848       11.0815127144  CLST      54              1.0000000000
       268        54  DCM       H2             -2.1893964574      -12.7291494551       10.1417030450  CLST      54              1.0000000000
       269        54  DCM       CL1            -2.0291697628      -10.4981169412        9.3011779903  CLST      54              1.0000000000
       270        54  DCM       CL2            -0.0441271996      -12.6330661108        9.0867142471  CLST      54              1.0000000000
       271        55  DCM       C              -8.4252412654        8.2167513155        2.6565532652  CLST      55              1.0000000000
       272        55  DCM       H1             -8.3956661904        9.3086035762        2.4539911180  CLST      55              1.0000000000
       273        55  DCM       H2             -7.9419375668        7.9784509250        3.6269297044  CLST      55              1.0000000000
       274        55  DCM       CL1           -10.1299167888        7.6826138250        2.7142249839  CLST      55              1.0000000000
       275        55  DCM       CL2            -7.5614781404        7.3595877132        1.3477829662  CLST      55              1.0000000000
       276        56  DCM       C             -11.8764803499       -0.2863918045       -4.4199069446  CLST      56              1.0000000000
       277        56  DCM       H1            -10.8174703163       -0.2654490288       -4.0868080046  CLST      56              1.0000000000
       278        56  DCM       H2            -12.5533969782       -0.4967893794       -3.5656894684  CLST      56              1.0000000000
       279        56  DCM       CL1           -12.2940652607        1.3048835012       -5.1182009749  CLST      56              1.0000000000
       280        56  DCM       CL2           -12.0760452129       -1.5661209901       -5.6529422397  CLST      56              1.0000000000
       281        57  DCM       C              -2.1593139787        3.5589314746       -1.9394875039  CLST      57              1.0000000000
       282        57  DCM       H1             -2.9373442890        3.4931679263       -1.1513127702  CLST      57              1.0000000000
       283        57  DCM       H2             -2.3456482480        2.8200039454       -2.7466455174  CLST      57              1.0000000000
       284        57  DCM       CL1            -2.1788548870        5.2052974813       -2.6376022089  CLST      57              1.0000000000
       285        57  DCM       CL2            -0.5630434184        3.2340288943       -1.2014728215  CLST      57              1.0000000000
       286        58  DCM       C               9.0293457890       -4.9419451578        2.2453560236  CLST      58              1.0000000000
       287        58  DCM       H1              8.7437413154       -6.0091507068        2.3510359137  CLST      58              1.0000000000
       288        58  DCM       H2              8.6280464528       -4.3389857298        3.0856246247  CLST      58              1.0000000000
       289        58  DCM       CL1            10.8116599555       -4.8171956096        2.2318735103  CLST      58              1.0000000000
       290        58  DCM       CL2             8.3730563149       -4.3078380767        0.7103346692  CLST      58              1.0000000000
       291        59  DCM       C               3.6264337386      -12.4829490686        3.2270068684  CLST      59              1.0000000000
       292        59  DCM       H1              3.0977664641      -11.5066646024        3.2438666327  CLST      59              1.0000000000
       293        59  DCM       H2              3.6925703307      -12.9179884044        4.2465826390  CLST      59              1.0000000000
       294        59  DCM       CL1             2.7272898447      -13.6094776627        2.1695285619  CLST      59              1.0000000000
       295        59  DCM       CL2             5.2796909660      -12.2380631461        2.5910446775  CLST      59              1.0000000000
       296        60  DCM       C              10.9209819652       11.5298144525        2.5425535373  CLST      60              1.0000000000
       297        60  DCM       H1             11.4628058415       10.9182391039        3.2905164508  CLST      60              1.0000000000
       298        60  DCM       H2             11.5823394446       12.3140403930        2.1098800892  CLST      60              1.0000000000
       299        60  DCM       CL1            10.3460662751       10.4671821973        1.2231711259  CLST      60              1.0000000000
       300        60  DCM       CL2             9.5300069971       12.3226821058        3.3390331950  CLST      60              1.0000000000
       301        61  DCM       C              -3.8933930859      -10.7007728746       -3.1613315029  CLST      61              1.0000000000
       302        61  DCM       H1             -3.6541315917      -10.6578802026       -4.2441055438  CLST      61              1.0000000000
       303        61  DCM       H2             -4.3026101488      -11.6952602140       -2.8812918538  CLST      61              1.0000000000
       304        61  DCM       CL1            -2.4014459235      -10.4000243317       -2.2209290165  CLST      61              1.0000000000
       305        61  DCM       CL2            -5.1128278546       -9.4477451271       -2.7863933734  CLST      61              1.0000000000
       306        62  DCM       C             -10.2876810228       -1.3647122402       -9.0912460433  CLST      62              1.0000000000
       307        62  DCM       H1            -10.7386150450       -0.9019574760       -8.1886762481  CLST      62              1.0000000000
       308        62  DCM       H2            -11.0681358601       -1.6263142822       -9.8361586214  CLST      62              1.0000000000
       309        62  DCM       CL1            -9.1459650164       -0.2013527209       -9.8267575593  CLST      62              1.0000000000
       310        62  DCM       CL2            -9.4182117416       -2.8498538464       -8.6047032792  CLST      62              1.0000000000
       311        63  DCM       C               3.6222099232       -6.0453492437        5.2568159684  CLST      63              1.0000000000
       312        63  DCM       H1              3.1916351728       -5.4623135185        6.0980007873  CLST      63              1.0000000000
       313        63  DCM       H2              3.4163150701       -7.1293621814        5.3758755311  CLST      63              1.0000000000
       314        63  DCM       CL1             2.8912707705       -5.4809790262        3.7268446269  CLST      63              1.0000000000
       315        63  DCM       CL2             5.3908454655       -5.7913967300        5.2167360018  CLST      63              1.0000000000
       316        64  DCM       C              10.2148474195       11.9931667142      -11.9666271977  CLST      64              1.0000000000
       317        64  DCM       H1             11.1518926539       12.4729906138      -12.3203749152  CLST      64              1.0000000000
       318        64  DCM       H2              9.8851181504       11.1973321794      -12.6675548508  CLST      64              1.0000000000
       319        64  DCM       CL1            10.5028797745       11.2675493293      -10.3579816963  CLST      64              1.0000000000
       320        64  DCM       CL2             8.9336807747       13.2351470948      -11.8511086422  CLST      64              1.0000000000
       321        65  DCM       C               1.2062193601        7.2040652219        7.3702114127  CLST      65              1.0000000000
       322        65  DCM       H1              1.1817582494        6.1004745308        7.4782110267  CLST      65              1.0000000000
       323        65  DCM       H2              0.5308577331        7.6824338812        8.1068246283  CLST      65              1.0000000000
       324        65  DCM       CL1             2.8712644989        7.7822772396        7.6405744111  CLST      65              1.0000000000
       325        65  DCM       CL2             0.6844802158        7.6405878948        5.7208932103  CLST      65              1.0000000000
       326        66  DCM       C               5.5060944765       -3.0055627708        2.5597570616  CLST      66              1.0000000000
       327        66  DCM       H1              6.1684221290       -2.7285280326        1.7137340936  CLST      66              1.0000000000
       328        66  DCM       H2              5.3343727398       -4.1009496070        2.5900611809  CLST      66              1.0000000000
       329        66  DCM       CL1             6.2722388235       -2.4949999848        4.0889632566  CLST      66              1.0000000000
       330        66  DCM       CL2             3.9370612171       -2.1782235205        2.3553094310  CLST      66              1.0000000000
       331        67  DCM       C               9.0762650176       -4.0529397107        6.1240191385  CLST      67              1.0000000000
       332        67  DCM       H1              8.0409607809       -4.2315074364        5.7637535590  CLST      67              1.0000000000
       333        67  DCM       H2              9.0862000208       -3.8426972300        7.2140283439  CLST      67              1.0000000000
       334        67  DCM       CL1            10.0584726340       -5.5109998953        5.8035442503  CLST      67              1.0000000000
       335        67  DCM       CL2             9.7656760558       -2.6500680884        5.2561929751  CLST      67              1.0000000000
       336        68  DCM       C              -4.8666503908       -2.4630830160       -7.0368436188  CLST      68              1.0000000000
       337        68  DCM       H1             -4.2716717471       -3.2232451598       -7.5758898632  CLST      68              1.0000000000
       338        68  DCM       H2             -4.2129594946       -1.8171771861       -6.4030700421  CLST      68              1.0000000000
       339        68  DCM       CL1            -5.7229260592       -1.4339973068       -8.2221826230  CLST      68              1.0000000000
       340        68  DCM       CL2            -6.0537000683       -3.2855961680       -5.9854910357  CLST      68              1.0000000000
       341        69  DCM       C               5.2387390623        9.8762836090        1.4839791378  CLST      69              1.0000000000
       342        69  DCM       H1              5.4149089921        8.9510293604        2.0725107666  CLST      69              1.0000000000
       343        69  DCM       H2              5.0871795643        9.6454400890        0.4085226102  CLST      69              1.0000000000
       344        69  DCM       CL1             3.7823212207       10.6954469138        2.1111693969  CLST      69              1.0000000000
       345        69  DCM       CL2             6.6531068012       10.9531354388        1.6495303116  CLST      69              1.0000000000
       346        70  DCM       C               8.1900458612       -8.1482033139       -7.3355420721  CLST      70              1.0000000000
       347        70  DCM       H1              7.5805344395       -8.4699976183       -8.2075156440  CLST      70              1.0000000000
       348        70  DCM       H2              9.1978243249       -8.6121023639       -7.3587581374  CLST      70              1.0000000000
       349        70  DCM       CL1             8.3652567585       -6.3705831397       -7.3814765608  CLST      70              1.0000000000
       350        70  DCM       CL2             7.3575613660       -8.6421336199       -5.8331989580  CLST      70              1.0000000000
       351        71  DCM       C               7.4436379915       -5.2812875361       -4.0340876866  CLST      71              1.0000000000
       352        71  DCM       H1              7.2913471047       -4.8512114841       -5.0467365177  CLST      71              1.0000000000
       353        71  DCM       H2              8.2762624425       -6.0153558162       -4.0358225881  CLST      71              1.0000000000
       354        71  DCM       CL1             7.8343897170       -3.9573472532       -2.8996043402  CLST      71              1.0000000000
       355        71  DCM       CL2             5.9400734012       -6.0995156759       -3.5199066346  CLST      71              1.0000000000
       356        72  DCM       C               0.2523066977        7.9705617233       12.4136756809  CLST      72              1.0000000000
       357        72  DCM       H1              0.7902346341        8.3070185615       13.3252410854  CLST      72              1.0000000000
       358        72  DCM       H2             -0.0454619822        6.9040408485       12.4965271719  CLST      72              1.0000000000
       359        72  DCM       CL1            -1.2135734445        8.9694334187       12.1965689129  CLST      72              1.0000000000
       360        72  DCM       CL2             1.3312678684        8.1625795917       11.0032577862  CLST      72              1.0000000000
       361        73  DCM       C              -9.6444046118        4.4025411614        0.5600141105  CLST      73              1.0000000000
       362        73  DCM       H1             -9.9921557694        5.1415794714        1.3097062563  CLST      73              1.0000000000
       363        73  DCM       H2            -10.3269369653        3.5267048985        0.5181169680  CLST      73              1.0000000000
       364        73  DCM       CL1            -9.5924817103        5.1845283708       -1.0461531197  CLST      73              1.0000000000
       365        73  DCM       CL2            -8.0099062458        3.8471332902        1.0157080665  CLST      73              1.0000000000
       366        74  DCM       C               6.1155233313      -11.1468143199       -2.3213219727  CLST      74              1.0000000000
       367        74  DCM       H1              5.4488506146      -12.0265628366       -2.4464589512  CLST      74              1.0000000000
       368        74  DCM       H2              7.0141895339      -11.2273617679       -2.9683516865  CLST      74              1.0000000000
       369        74  DCM       CL1             5.2140858454       -9.6690945295       -2.7654118371  CLST      74              1.0000000000
       370        74  DCM       CL2             6.6350669453      -11.0514005898       -0.6136504696  CLST      74              1.0000000000
       371        75  DCM       C              -1.3768802247        4.5654725962        4.6475732228  CLST      75              1.0000000000
       372        75  DCM       H1             -0.9827144496        3.9505176001        3.8112488713  CLST      75              1.0000000000
       373        75  DCM       H2             -1.2062948584        5.6461535233        4.4624603009  CLST      75              1.0000000000
       374        75  DCM       CL1            -0.5597396896        4.0961536623        6.1641827294  CLST      75              1.0000000000
       375        75  DCM       CL2            -3.1298427641        4.2746575740        4.8108554373  CLST      75              1.0000000000
       376        76  DCM       C               5.3882058309        2.0819848876        9.0691044763  CLST      76              1.0000000000
       377        76  DCM       H1              5.3418605831        3.0904070345        8.6068184174  CLST      76              1.0000000000
       378        76  DCM       H2              4.3722082418        1.6532067988        9.1889024885  CLST      76              1.0000000000
       379        76  DCM       CL1             6.3567345508        1.0117219530        8.0147275130  CLST      76              1.0000000000
       380        76  DCM       CL2             6.1603355617        2.2226225278       10.6744162486  CLST      76              1.0000000000
       381        77  DCM       C              -8.8012046939      -11.5227147819        9.4469106805  CLST      77              1.0000000000
       382        77  DCM       H1             -8.4055044078      -12.5222738956        9.1665213316  CLST      77              1.0000000000
       383        77  DCM       H2             -9.8731323702      -11.4252995947        9.1744014205  CLST      77              1.0000000000
       384        77  DCM       CL1            -8.6283198984      -11.3061213372       11.2127292833  CLST      77              1.0000000000
       385        77  DCM       CL2            -7.8668086369      -10.2640581235        8.5874837263  CLST      77              1.0000000000
       386        78  DCM       C             -11.8725225649        2.9784174216       12.5027424176  CLST      78              1.0000000000
       387        78  DCM       H1            -11.1805349815        2.3279924404       13.0774651897  CLST      78              1.0000000000
       388        78  DCM       H2            -12.0038377836        2.6027339956       11.4655507187  CLST      78              1.0000000000
       389        78  DCM       CL1           -13.4634257369        2.9991038406       13.3189775571  CLST      78              1.0000000000
       390        78  DCM       CL2           -11.2007387401        4.6340166625       12.4396960969  CLST      78              1.0000000000
       391        79  DCM       C               1.1692103720      -10.2911204824        0.1033422137  CLST      79              1.0000000000
       392        79  DCM       H1              0.5138878364      -11.1453958772       -0.1679912718  CLST      79              1.0000000000
       393        79  DCM       H2              0.9430093174       -9.4005049876       -0.5212486881  CLST      79              1.0000000000
       394        79  DCM       CL1             0.9064207839       -9.8792660869        1.8228277820  CLST      79              1.0000000000
       395        79  DCM       CL2             2.8742390071      -10.7625173538       -0.1504749801  CLST      79              1.0000000000
       396        80  DCM       C              -9.0722709852       -3.5213878435       -1.5979464670  CLST      80              1.0000000000
       397        80  DCM       H1             -8.2581791739       -3.2412724010       -2.3000334847  CLST      80              1.0000000000
       398        80  DCM       H2             -9.2412933173       -4.6193532372       -1.6020116972  CLST      80              1.0000000000
       399        80  DCM       CL1            -8.6201496218       -3.0080571060        0.0537507523  CLST      80              1.0000000000
       400        80  DCM       CL2           -10.5785494510       -2.6987048651       -2.0989093993  CLST      80              1.0000000000
       401        81  DCM       C              -0.5310655795        7.6511355108       -5.2664679129  CLST      81              1.0000000000
       402        81  DCM       H1             -1.0279389659        6.6614862912       -5.1726699868  CLST      81              1.0000000000
       403        81  DCM       H2             -1.1569488097        8.3593336148       -5.8475200069  CLST      81              1.0000000000
       404        81  DCM       CL1            -0.2645720599        8.3218160567       -3.6307789204  CLST      81              1.0000000000
       405        81  DCM       CL2             1.0368393575        7.4384688199       -6.1001290861  CLST      81              1.0000000000
       406        82  DCM       C              -5.2760251200        0.6128631141       -4.7631801576  CLST      82              1.0000000000
       407        82  DCM       H1             -5.7397841041       -0.3599866764       -5.0253647503  CLST      82              1.0000000000
       408        82  DCM       H2             -5.9414711992        1.1988010323       -4.0953329755  CLST      82              1.0000000000
       409        82  DCM       CL1            -3.7251193064        0.3142688887       -3.9276499240  CLST      82              1.0000000000
       410        82  DCM       CL2            -4.9903487704        1.5501952644       -6.2571480632  CLST      82              1.0000000000
       411        83  DCM       C               3.0210978589        3.9669512516        5.9744248779  CLST      83              1.0000000000
       412        83  DCM       H1              2.9351766148        5.0624458805        5.7841299343  CLST      83              1.0000000000
       413        83  DCM       H2              2.3443932470        3.3928339920        5.3150756322  CLST      83              1.0000000000
       414        83  DCM       CL1             4.7021716308        3.4528877515        5.6796200773  CLST      83              1.0000000000
       415        83  DCM       CL2             2.5982426275        3.6449594105        7.6764182059  CLST      83              1.0000000000
       416        84  DCM       C               9.2475699101       -9.2778023162        3.9478350427  CLST      84              1.0000000000
       417        84  DCM       H1              8.9615418480       -9.9495173635        3.1107833248  CLST      84              1.0000000000
       418        84  DCM       H2              9.4524772536       -9.8549738358        4.8737607484  CLST      84              1.0000000000
       419        84  DCM       CL1            10.7188800223       -8.3707788171        3.4899869806  CLST      84              1.0000000000
       420        84  DCM       CL2             7.9081754664       -8.1377720422        4.2599263011  CLST      84              1.0000000000
       421        85  DCM       C             -13.9126384440       -0.4591435487       11.9211804775  CLST      85              1.0000000000
       422        85  DCM       H1            -14.3438307480       -1.4646357557       11.7302119104  CLST      85              1.0000000000
       423        85  DCM       H2            -14.5169110530        0.1004856225       12.6664915490  CLST      85              1.0000000000
       424        85  DCM       CL1           -12.2483848403       -0.6492544420       12.5466631844  CLST      85              1.0000000000
       425        85  DCM       CL2           -13.8825784220        0.4611610172       10.3884808748  CLST      85              1.0000000000
       426        86  DCM       C               8.0659413669       11.4301737169       -5.5111988442  CLST      86              1.0000000000
       427        86  DCM       H1              8.3361960373       10.3719184004       -5.7137368044  CLST      86              1.0000000000
       428        86  DCM       H2              7.0960783876       11.6899600725       -5.9830276713  CLST      86              1.0000000000
       429        86  DCM       CL1             7.9304968056       11.6710861825       -3.7450774405  CLST      86              1.0000000000
       430        86  DCM       CL2             9.3356534330       12.4948723214       -6.1816715255  CLST      86              1.0000000000
       431        87  DCM       C              -6.9426156259       -8.7829500495       -5.9766195475  CLST      87              1.0000000000
       432        87  DCM       H1             -7.5483880400       -9.6203505003       -5.5747509011  CLST      87              1.0000000000
       433        87  DCM       H2             -6.7522621032       -8.0194119788       -5.1925496519  CLST      87              1.0000000000
       434        87  DCM       CL1            -5.3772227522       -9.4214642835       -6.5566365398  CLST      87              1.0000000000
       435        87  DCM       CL2            -7.8314499054       -8.0243893852       -7.3291344830  CLST      87              1.0000000000
       436        88  DCM       C               6.9829577249        0.5421488049        2.1611162575  CLST      88              1.0000000000
       437        88  DCM       H1              6.7333400356       -0.4197986580        1.6689482974  CLST      88              1.0000000000
       438        88  DCM       H2              7.1964798581        1.3271077123        1.4078825527  CLST      88              1.0000000000
       439        88  DCM       CL1             5.5957482528        1.0657389184        3.1582183354  CLST      88              1.0000000000
       440        88  DCM       CL2             8.4253903253        0.3061284418        3.1892680222  CLST      88              1.0000000000
       441        89  DCM       C               5.0647863978      -11.8825390549      -12.0127800246  CLST      89              1.0000000000
       442        89  DCM       H1              4.8125398693      -11.1592804886      -11.2037329072  CLST      89              1.0000000000
       443        89  DCM       H2              4.3176668287      -11.8427333368      -12.8295458489  CLST      89              1.0000000000
       444        89  DCM       CL1             6.6744341454      -11.4735936898      -12.6734554605  CLST      89              1.0000000000
       445        89  DCM       CL2             5.0925260885      -13.5328685836      -11.3249044285  CLST      89              1.0000000000
       446        90  DCM       C               2.3228107044       -6.5617874992        0.3335449170  CLST      90              1.0000000000
       447        90  DCM       H1              2.4427606355       -7.3042607644        1.1486908115  CLST      90              1.0000000000
       448        90  DCM       H2              2.7687552230       -5.5845106983        0.6179664340  CLST      90              1.0000000000
       449        90  DCM       CL1             3.1371394405       -7.1713989927       -1.1355182220  CLST      90              1.0000000000
       450        90  DCM       CL2             0.5806713094       -6.3358495971        0.0100796233  CLST      90              1.0000000000
       451        91  DCM       C               1.9860805746       11.5536818316        6.5171393097  CLST      91              1.0000000000
       452        91  DCM       H1              1.0642011212       11.9824138632        6.9609385414  CLST      91              1.0000000000
       453        91  DCM       H2              2.3472306840       10.6829034075        7.1023677956  CLST      91              1.0000000000
       454        91  DCM       CL1             1.6333777606       11.0201752453        4.8500982609  CLST      91              1.0000000000
       455        91  DCM       CL2             3.2508934906       12.8152681639        6.5017473611  CLST      91              1.0000000000
       456        92  DCM       C               6.6384747456        9.5181480522      -12.6904733832  CLST      92              1.0000000000
       457        92  DCM       H1              6.0609548334       10.0377313041      -11.8979320632  CLST      92              1.0000000000
       458        92  DCM       H2              6.0255639416        8.7276267189      -13.1736496718  CLST      92              1.0000000000
       459        92  DCM       CL1             7.1298614390       10.7111825543      -13.9271276580  CLST      92              1.0000000000
       460        92  DCM       CL2             8.0883031307        8.7715101624      -11.9597136528  CLST      92              1.0000000000
