* INITIAL
*  DATE:     6/28/26      1:56:49      CREATED BY USER: boittier
*
       460  EXT
         1         1  DCM       C              -1.1713483309        2.5375356749        6.6554757363  CLST      1               1.0000000000
         2         1  DCM       H1             -0.0676087640        2.5999727277        6.5459653083  CLST      1               1.0000000000
         3         1  DCM       H2             -1.5401273336        3.2648003500        7.4094798593  CLST      1               1.0000000000
         4         1  DCM       CL1            -1.9350359569        2.8976924298        5.0797809046  CLST      1               1.0000000000
         5         1  DCM       CL2            -1.6114716665        0.8857891093        7.1786451134  CLST      1               1.0000000000
         6         2  DCM       C             -14.9918972804       -2.1446893048       -2.2564786134  CLST      2               1.0000000000
         7         2  DCM       H1            -15.8154695397       -2.6677884419       -1.7256121162  CLST      2               1.0000000000
         8         2  DCM       H2            -14.0057313559       -2.4144370315       -1.8269139007  CLST      2               1.0000000000
         9         2  DCM       CL1           -15.0139070890       -2.6154056407       -3.9803841325  CLST      2               1.0000000000
        10         2  DCM       CL2           -15.2263397378       -0.3792651753       -2.1026788064  CLST      2               1.0000000000
        11         3  DCM       C             -12.4562952072        2.7383821035       -0.3881114854  CLST      3               1.0000000000
        12         3  DCM       H1            -11.4804402558        2.2075357315       -0.3899317278  CLST      3               1.0000000000
        13         3  DCM       H2            -12.3637454580        3.7388267463        0.0848282652  CLST      3               1.0000000000
        14         3  DCM       CL1           -13.0125762477        2.9420733629       -2.0740916813  CLST      3               1.0000000000
        15         3  DCM       CL2           -13.6475890507        1.7742864983        0.5313185090  CLST      3               1.0000000000
        16         4  DCM       C               1.4418542561        2.7155996357       -0.5717265599  CLST      4               1.0000000000
        17         4  DCM       H1              2.2385023268        3.1098551747       -1.2367203465  CLST      4               1.0000000000
        18         4  DCM       H2              0.4456553344        3.0985313609       -0.8746907658  CLST      4               1.0000000000
        19         4  DCM       CL1             1.4238269532        0.9321395734       -0.6729303142  CLST      4               1.0000000000
        20         4  DCM       CL2             1.7791243661        3.2282420295        1.1069402528  CLST      4               1.0000000000
        21         5  DCM       C             -10.6026021059       -0.5058641040        9.0947057229  CLST      5               1.0000000000
        22         5  DCM       H1             -9.5559821214       -0.7108477310        8.7838189652  CLST      5               1.0000000000
        23         5  DCM       H2            -11.0429563081        0.3134478574        8.4881931979  CLST      5               1.0000000000
        24         5  DCM       CL1           -11.5753066331       -1.9881165150        8.8651143815  CLST      5               1.0000000000
        25         5  DCM       CL2           -10.6201956322       -0.0312722025       10.8182275458  CLST      5               1.0000000000
        26         6  DCM       C              -4.7624248107      -14.7934292736       -4.0013559783  CLST      6               1.0000000000
        27         6  DCM       H1             -3.8284624925      -15.2598472572       -4.3756692730  CLST      6               1.0000000000
        28         6  DCM       H2             -4.5938843760      -13.7333531440       -3.7169281234  CLST      6               1.0000000000
        29         6  DCM       CL1            -5.9975377879      -14.8625896042       -5.2909491297  CLST      6               1.0000000000
        30         6  DCM       CL2            -5.3238563409      -15.7041483031       -2.5696388677  CLST      6               1.0000000000
        31         7  DCM       C              11.0248764047       -4.5864633332        2.3510903005  CLST      7               1.0000000000
        32         7  DCM       H1             11.8048091588       -4.5484327429        1.5620045630  CLST      7               1.0000000000
        33         7  DCM       H2             11.4138144814       -5.0646034148        3.2754103450  CLST      7               1.0000000000
        34         7  DCM       CL1            10.5068232430       -2.9182765737        2.7272918285  CLST      7               1.0000000000
        35         7  DCM       CL2             9.6322883755       -5.5332965936        1.7517648001  CLST      7               1.0000000000
        36         8  DCM       C              -4.3648480334       -2.0717571939        3.7063919287  CLST      8               1.0000000000
        37         8  DCM       H1             -5.3661316197       -2.0859925835        4.1865998847  CLST      8               1.0000000000
        38         8  DCM       H2             -3.7832206472       -2.9788327910        3.9746343062  CLST      8               1.0000000000
        39         8  DCM       CL1            -4.5677111530       -2.0106635231        1.9300235922  CLST      8               1.0000000000
        40         8  DCM       CL2            -3.4759432879       -0.6254345720        4.2647143316  CLST      8               1.0000000000
        41         9  DCM       C               8.7561389486        2.2233123875       -3.5237600008  CLST      9               1.0000000000
        42         9  DCM       H1              8.8004714808        2.8529214235       -4.4368332996  CLST      9               1.0000000000
        43         9  DCM       H2              9.2588097905        2.7278653925       -2.6726896334  CLST      9               1.0000000000
        44         9  DCM       CL1             7.0426101718        1.9305799215       -3.1047300419  CLST      9               1.0000000000
        45         9  DCM       CL2             9.5724906903        0.6663210902       -3.8457205431  CLST      9               1.0000000000
        46        10  DCM       C             -10.9461506473       -0.0644344706       -2.7785711459  CLST      10              1.0000000000
        47        10  DCM       H1             -9.9755385056       -0.5179989525       -3.0674522648  CLST      10              1.0000000000
        48        10  DCM       H2            -10.8253962786        1.0073513758       -2.5262364395  CLST      10              1.0000000000
        49        10  DCM       CL1           -11.5855535443       -0.9110439810       -1.3434689324  CLST      10              1.0000000000
        50        10  DCM       CL2           -12.0912810463       -0.2083191819       -4.1418426725  CLST      10              1.0000000000
        51        11  DCM       C             -10.6277827014        2.2881172420        3.3840884807  CLST      11              1.0000000000
        52        11  DCM       H1             -9.8474532902        2.1020044545        4.1529324625  CLST      11              1.0000000000
        53        11  DCM       H2            -11.6303281890        2.3953466273        3.8493105085  CLST      11              1.0000000000
        54        11  DCM       CL1           -10.2367297122        3.7878882327        2.4967842154  CLST      11              1.0000000000
        55        11  DCM       CL2           -10.6626066152        0.9135990222        2.2458366445  CLST      11              1.0000000000
        56        12  DCM       C              -2.9549986818        4.1520866989       -5.0486830994  CLST      12              1.0000000000
        57        12  DCM       H1             -3.5731985300        4.2410369301       -4.1318688684  CLST      12              1.0000000000
        58        12  DCM       H2             -1.9155963382        3.8597196182       -4.7960472700  CLST      12              1.0000000000
        59        12  DCM       CL1            -3.6669831027        2.9034014407       -6.1033417594  CLST      12              1.0000000000
        60        12  DCM       CL2            -2.9286027266        5.7168620174       -5.9087804255  CLST      12              1.0000000000
        61        13  DCM       C               5.1509017697       -6.6396961141        4.0803461760  CLST      13              1.0000000000
        62        13  DCM       H1              5.6705718851       -6.4811420777        5.0491899464  CLST      13              1.0000000000
        63        13  DCM       H2              4.5036863443       -7.5411832644        4.1165056047  CLST      13              1.0000000000
        64        13  DCM       CL1             4.1377185878       -5.2117900083        3.7196699386  CLST      13              1.0000000000
        65        13  DCM       CL2             6.3728677581       -6.8553960444        2.7953633036  CLST      13              1.0000000000
        66        14  DCM       C              -6.7199853444        1.0084355381       -4.6963305559  CLST      14              1.0000000000
        67        14  DCM       H1             -6.9108068157        1.2753531242       -3.6361676323  CLST      14              1.0000000000
        68        14  DCM       H2             -6.5634675169        1.9173400424       -5.3134940132  CLST      14              1.0000000000
        69        14  DCM       CL1            -5.2553612917       -0.0121577289       -4.7863280990  CLST      14              1.0000000000
        70        14  DCM       CL2            -8.1282205094        0.1058955410       -5.3263627679  CLST      14              1.0000000000
        71        15  DCM       C               7.4703742183        5.8123464128        7.9454340117  CLST      15              1.0000000000
        72        15  DCM       H1              7.4871462778        4.9863894835        8.6875386167  CLST      15              1.0000000000
        73        15  DCM       H2              7.4734729896        6.8020378281        8.4489516161  CLST      15              1.0000000000
        74        15  DCM       CL1             8.9137387553        5.6872774668        6.8985117102  CLST      15              1.0000000000
        75        15  DCM       CL2             5.9917383446        5.6706693428        6.9534598495  CLST      15              1.0000000000
        76        16  DCM       C              -0.2424164096        6.1628138573        0.4514405731  CLST      16              1.0000000000
        77        16  DCM       H1             -0.7348092086        5.3637547526       -0.1392552792  CLST      16              1.0000000000
        78        16  DCM       H2              0.8623745566        6.1092510877        0.3506364215  CLST      16              1.0000000000
        79        16  DCM       CL1            -0.8054788804        7.7546522186       -0.1383496044  CLST      16              1.0000000000
        80        16  DCM       CL2            -0.6826189398        5.9576102952        2.1719055098  CLST      16              1.0000000000
        81        17  DCM       C               1.7169033907       -0.3916595651       -7.7838945320  CLST      17              1.0000000000
        82        17  DCM       H1              1.1348015568        0.2071496455       -7.0538694992  CLST      17              1.0000000000
        83        17  DCM       H2              2.8046373122       -0.3241298141       -7.5733423029  CLST      17              1.0000000000
        84        17  DCM       CL1             1.4008232537        0.2312309537       -9.4290790952  CLST      17              1.0000000000
        85        17  DCM       CL2             1.2069656361       -2.1007971517       -7.6722896592  CLST      17              1.0000000000
        86        18  DCM       C              10.5384291495       -4.0026701377      -10.9658090451  CLST      18              1.0000000000
        87        18  DCM       H1             10.1043817386       -3.5908539564      -10.0302650067  CLST      18              1.0000000000
        88        18  DCM       H2              9.9415377417       -4.8626619857      -11.3366959181  CLST      18              1.0000000000
        89        18  DCM       CL1            10.5493207126       -2.7211968129      -12.2137065494  CLST      18              1.0000000000
        90        18  DCM       CL2            12.2090514857       -4.5486537343      -10.6404883449  CLST      18              1.0000000000
        91        19  DCM       C               4.3356654676       -1.4190781136        4.1451880447  CLST      19              1.0000000000
        92        19  DCM       H1              3.7134665591       -0.7636813169        4.8037469654  CLST      19              1.0000000000
        93        19  DCM       H2              4.4907100525       -2.4153983140        4.6064373994  CLST      19              1.0000000000
        94        19  DCM       CL1             3.5100232828       -1.6330698452        2.5797477364  CLST      19              1.0000000000
        95        19  DCM       CL2             5.9226654199       -0.6378117790        3.9013099488  CLST      19              1.0000000000
        96        20  DCM       C              -1.7220080234        1.7762064610        1.7340547336  CLST      20              1.0000000000
        97        20  DCM       H1             -2.5649600727        1.8092365971        2.4538482433  CLST      20              1.0000000000
        98        20  DCM       H2             -0.7976533909        2.1950345765        2.1837079624  CLST      20              1.0000000000
        99        20  DCM       CL1            -1.4323677002        0.0764860169        1.2678261398  CLST      20              1.0000000000
       100        20  DCM       CL2            -2.1583194364        2.7373404692        0.2944866193  CLST      20              1.0000000000
       101        21  DCM       C              -2.2852093256       11.4695701961       -1.0867145791  CLST      21              1.0000000000
       102        21  DCM       H1             -1.8563041809       10.9353473853       -0.2132081604  CLST      21              1.0000000000
       103        21  DCM       H2             -1.7192691401       12.4010624556       -1.2990698970  CLST      21              1.0000000000
       104        21  DCM       CL1            -2.2029755123       10.3976888518       -2.5109015473  CLST      21              1.0000000000
       105        21  DCM       CL2            -3.9885332581       11.8857065462       -0.7441812310  CLST      21              1.0000000000
       106        22  DCM       C               0.3153632672      -14.0820691850       -5.3477951506  CLST      22              1.0000000000
       107        22  DCM       H1              1.0066761083      -13.8825314304       -4.5017502858  CLST      22              1.0000000000
       108        22  DCM       H2              0.5389208347      -13.4235963415       -6.2128224553  CLST      22              1.0000000000
       109        22  DCM       CL1             0.4878718589      -15.7870589400       -5.8561234949  CLST      22              1.0000000000
       110        22  DCM       CL2            -1.3598488632      -13.7747343113       -4.8123106533  CLST      22              1.0000000000
       111        23  DCM       C              -4.9968830806       -2.2618154558        8.3617446685  CLST      23              1.0000000000
       112        23  DCM       H1             -4.9347451899       -1.3182221087        8.9437430051  CLST      23              1.0000000000
       113        23  DCM       H2             -5.1262639704       -3.1349620820        9.0348032772  CLST      23              1.0000000000
       114        23  DCM       CL1            -3.4906709862       -2.4673661450        7.4223262092  CLST      23              1.0000000000
       115        23  DCM       CL2            -6.3923208851       -2.1727640307        7.2493467587  CLST      23              1.0000000000
       116        24  DCM       C               9.4216556551       -3.0256687821       -0.9075267404  CLST      24              1.0000000000
       117        24  DCM       H1              9.5807915780       -4.1195265537       -0.8163269419  CLST      24              1.0000000000
       118        24  DCM       H2              8.8777502950       -2.6370025201       -0.0227265486  CLST      24              1.0000000000
       119        24  DCM       CL1            11.0062685320       -2.2087710238       -1.0180436293  CLST      24              1.0000000000
       120        24  DCM       CL2             8.4579979225       -2.6947853004       -2.3775070863  CLST      24              1.0000000000
       121        25  DCM       C               7.8842068348        4.6133783554       -0.4087033220  CLST      25              1.0000000000
       122        25  DCM       H1              7.9395765625        3.5159167210       -0.5554197598  CLST      25              1.0000000000
       123        25  DCM       H2              7.0804159318        4.8736759732        0.3108651624  CLST      25              1.0000000000
       124        25  DCM       CL1             9.4469127964        5.1937612827        0.2331599724  CLST      25              1.0000000000
       125        25  DCM       CL2             7.5422482287        5.3898242273       -1.9817668866  CLST      25              1.0000000000
       126        26  DCM       C              -9.6771183693        6.7597125128        0.0268612108  CLST      26              1.0000000000
       127        26  DCM       H1             -9.4440372877        6.4831084069        1.0772560836  CLST      26              1.0000000000
       128        26  DCM       H2            -10.5858191419        7.3956309830       -0.0271378328  CLST      26              1.0000000000
       129        26  DCM       CL1            -8.2948739292        7.6622240626       -0.6571071269  CLST      26              1.0000000000
       130        26  DCM       CL2            -9.9513132111        5.2699335170       -0.9213440125  CLST      26              1.0000000000
       131        27  DCM       C              -3.3661273854       -8.9785314305       -7.5551346637  CLST      27              1.0000000000
       132        27  DCM       H1             -2.8001161835       -9.6149812391       -6.8402815552  CLST      27              1.0000000000
       133        27  DCM       H2             -3.3263809132       -9.4020742243       -8.5819323650  CLST      27              1.0000000000
       134        27  DCM       CL1            -5.0688147547       -8.8891737960       -7.0279308882  CLST      27              1.0000000000
       135        27  DCM       CL2            -2.6417598274       -7.3423242220       -7.5694495390  CLST      27              1.0000000000
       136        28  DCM       C               0.5328809952        6.1099647508       -4.3367456194  CLST      28              1.0000000000
       137        28  DCM       H1              1.6201733646        6.3054275173       -4.2709686393  CLST      28              1.0000000000
       138        28  DCM       H2              0.2663368226        5.6216594615       -5.2948006309  CLST      28              1.0000000000
       139        28  DCM       CL1             0.0578600719        5.0382489575       -2.9886423725  CLST      28              1.0000000000
       140        28  DCM       CL2            -0.3457325487        7.6629955775       -4.2182949574  CLST      28              1.0000000000
       141        29  DCM       C               1.0217937998        9.6149698101        2.6208761030  CLST      29              1.0000000000
       142        29  DCM       H1              0.1642900055        9.8746541574        1.9653743773  CLST      29              1.0000000000
       143        29  DCM       H2              1.5973289746       10.5208623196        2.9019701575  CLST      29              1.0000000000
       144        29  DCM       CL1             0.4084757996        8.8316661703        4.1051480877  CLST      29              1.0000000000
       145        29  DCM       CL2             2.0994199843        8.4950417701        1.7445518504  CLST      29              1.0000000000
       146        30  DCM       C               4.2172387787        9.2473110144        8.6134233658  CLST      30              1.0000000000
       147        30  DCM       H1              4.6361123423        9.7349028041        7.7086223020  CLST      30              1.0000000000
       148        30  DCM       H2              3.5562729751        9.9442950983        9.1711017042  CLST      30              1.0000000000
       149        30  DCM       CL1             3.2660912245        7.8165472741        8.1176243157  CLST      30              1.0000000000
       150        30  DCM       CL2             5.5618740680        8.7426704729        9.6781917661  CLST      30              1.0000000000
       151        31  DCM       C              -2.9932807177      -18.5014193753        0.1387188747  CLST      31              1.0000000000
       152        31  DCM       H1             -3.1780571136      -19.0591657364        1.0810158485  CLST      31              1.0000000000
       153        31  DCM       H2             -1.9666442978      -18.6874091534       -0.2419448286  CLST      31              1.0000000000
       154        31  DCM       CL1            -4.1763021765      -19.0330244600       -1.0926383437  CLST      31              1.0000000000
       155        31  DCM       CL2            -3.1872100837      -16.7518396613        0.4516809732  CLST      31              1.0000000000
       156        32  DCM       C               6.1615601426        4.2946320084        3.2881208529  CLST      32              1.0000000000
       157        32  DCM       H1              5.6224734333        4.1427069644        4.2482472965  CLST      32              1.0000000000
       158        32  DCM       H2              5.4572387944        4.5931742742        2.4848621389  CLST      32              1.0000000000
       159        32  DCM       CL1             7.3852199976        5.5764140955        3.5018393074  CLST      32              1.0000000000
       160        32  DCM       CL2             6.9698457848        2.7747510953        2.8139692492  CLST      32              1.0000000000
       161        33  DCM       C              -6.8418163711        5.0744542880        5.7657962481  CLST      33              1.0000000000
       162        33  DCM       H1             -6.3814432496        5.8816802905        6.3727116360  CLST      33              1.0000000000
       163        33  DCM       H2             -7.2986225256        4.2964803943        6.4144843013  CLST      33              1.0000000000
       164        33  DCM       CL1            -5.5807744534        4.3122432170        4.7588731782  CLST      33              1.0000000000
       165        33  DCM       CL2            -8.1069408401        5.7768377529        4.7151769439  CLST      33              1.0000000000
       166        34  DCM       C               8.0829862061       -4.1818397521        5.0489179878  CLST      34              1.0000000000
       167        34  DCM       H1              7.7787510338       -4.2206929779        3.9824287476  CLST      34              1.0000000000
       168        34  DCM       H2              8.8735476139       -3.4183966830        5.2100135023  CLST      34              1.0000000000
       169        34  DCM       CL1             8.7140380563       -5.7847279960        5.5250603238  CLST      34              1.0000000000
       170        34  DCM       CL2             6.6619243063       -3.7639134695        6.0480171355  CLST      34              1.0000000000
       171        35  DCM       C              -0.2416072912       13.6995527274        3.0928332292  CLST      35              1.0000000000
       172        35  DCM       H1             -1.1339445410       14.3532158588        3.1839201189  CLST      35              1.0000000000
       173        35  DCM       H2              0.6973810008       14.2876889067        3.1684433754  CLST      35              1.0000000000
       174        35  DCM       CL1            -0.2825370443       12.8775921133        1.5068176046  CLST      35              1.0000000000
       175        35  DCM       CL2            -0.2761973364       12.4863599317        4.4062659361  CLST      35              1.0000000000
       176        36  DCM       C               0.4689242547       -0.1453595338        4.2013481880  CLST      36              1.0000000000
       177        36  DCM       H1             -0.5961594378        0.1511704231        4.3082678807  CLST      36              1.0000000000
       178        36  DCM       H2              0.6354083363       -0.7001648756        3.2542001868  CLST      36              1.0000000000
       179        36  DCM       CL1             1.4860512609        1.3256710013        4.1981788355  CLST      36              1.0000000000
       180        36  DCM       CL2             0.9191403780       -1.1959447749        5.5748611330  CLST      36              1.0000000000
       181        37  DCM       C               6.4549323558      -13.6756990370       15.7657779031  CLST      37              1.0000000000
       182        37  DCM       H1              7.0251511440      -14.4742032069       16.2869387584  CLST      37              1.0000000000
       183        37  DCM       H2              5.4330754943      -14.0240194371       15.5026141231  CLST      37              1.0000000000
       184        37  DCM       CL1             6.3274967512      -12.2541054658       16.8413576661  CLST      37              1.0000000000
       185        37  DCM       CL2             7.3171684332      -13.2274840811       14.2651574281  CLST      37              1.0000000000
       186        38  DCM       C              -5.1200992093        1.3897456126        6.7019262712  CLST      38              1.0000000000
       187        38  DCM       H1             -4.6168200638        1.6713254129        5.7524057349  CLST      38              1.0000000000
       188        38  DCM       H2             -4.7475620193        0.4124532208        7.0733682563  CLST      38              1.0000000000
       189        38  DCM       CL1            -4.7924298769        2.6482630449        7.9285899079  CLST      38              1.0000000000
       190        38  DCM       CL2            -6.8765974802        1.2735517471        6.4095462169  CLST      38              1.0000000000
       191        39  DCM       C              -7.2956202661        1.9855987966       -8.5127304995  CLST      39              1.0000000000
       192        39  DCM       H1             -8.1861476431        1.6038052045       -7.9705855129  CLST      39              1.0000000000
       193        39  DCM       H2             -7.5214054142        2.1486550687       -9.5876607293  CLST      39              1.0000000000
       194        39  DCM       CL1            -6.7911564488        3.5387173817       -7.7840776186  CLST      39              1.0000000000
       195        39  DCM       CL2            -5.9767191043        0.7881104822       -8.3703690228  CLST      39              1.0000000000
       196        40  DCM       C              -3.0269710607      -18.1021869738       -6.4648577406  CLST      40              1.0000000000
       197        40  DCM       H1             -3.3461634688      -18.7360688142       -7.3189424829  CLST      40              1.0000000000
       198        40  DCM       H2             -2.0156774799      -18.3909730374       -6.1080094426  CLST      40              1.0000000000
       199        40  DCM       CL1            -2.9907453021      -16.3953441777       -6.9913278570  CLST      40              1.0000000000
       200        40  DCM       CL2            -4.1972400450      -18.2986126804       -5.1276442709  CLST      40              1.0000000000
       201        41  DCM       C              -8.1684739573       -4.8800082034        5.5132674151  CLST      41              1.0000000000
       202        41  DCM       H1             -7.1826778521       -5.0272153850        5.9996888157  CLST      41              1.0000000000
       203        41  DCM       H2             -8.5296490694       -5.8204501783        5.0471248014  CLST      41              1.0000000000
       204        41  DCM       CL1            -9.3514908860       -4.3437981500        6.7421542022  CLST      41              1.0000000000
       205        41  DCM       CL2            -7.9960408989       -3.6309260697        4.2496133030  CLST      41              1.0000000000
       206        42  DCM       C               4.2940071950        2.5914560025       -9.2060798068  CLST      42              1.0000000000
       207        42  DCM       H1              3.4189273880        2.7810218772       -9.8625747732  CLST      42              1.0000000000
       208        42  DCM       H2              5.0490247490        3.4005749041       -9.2968362171  CLST      42              1.0000000000
       209        42  DCM       CL1             3.7417110981        2.5004663348       -7.5092482001  CLST      42              1.0000000000
       210        42  DCM       CL2             5.0431466842        1.0415212568       -9.6816366973  CLST      42              1.0000000000
       211        43  DCM       C             -13.6739209143       -1.6925803463        1.4929778409  CLST      43              1.0000000000
       212        43  DCM       H1            -12.6958797790       -1.1700108147        1.5341877850  CLST      43              1.0000000000
       213        43  DCM       H2            -14.3723490850       -1.1757574079        0.8019889593  CLST      43              1.0000000000
       214        43  DCM       CL1           -13.4185552796       -3.3663395659        0.9199214064  CLST      43              1.0000000000
       215        43  DCM       CL2           -14.3877564385       -1.7167374337        3.1305996833  CLST      43              1.0000000000
       216        44  DCM       C              -7.0468404971        1.5199678218        2.7535023609  CLST      44              1.0000000000
       217        44  DCM       H1             -7.1544080956        2.1600456562        3.6536448399  CLST      44              1.0000000000
       218        44  DCM       H2             -7.7531352898        1.8373961097        1.9609677974  CLST      44              1.0000000000
       219        44  DCM       CL1            -5.3771658334        1.6533639289        2.1338383650  CLST      44              1.0000000000
       220        44  DCM       CL2            -7.3896240212       -0.1745501711        3.1953452868  CLST      44              1.0000000000
       221        45  DCM       C              -7.7977751174       -2.5435531448       11.8628697969  CLST      45              1.0000000000
       222        45  DCM       H1             -8.0955534180       -3.3111337426       12.6082364112  CLST      45              1.0000000000
       223        45  DCM       H2             -8.2764014332       -1.5651981572       12.0813079163  CLST      45              1.0000000000
       224        45  DCM       CL1            -6.0219017697       -2.3448584080       11.9076245028  CLST      45              1.0000000000
       225        45  DCM       CL2            -8.3046675920       -3.0857337115       10.2377565522  CLST      45              1.0000000000
       226        46  DCM       C              -1.9974058551       -0.0949963917       -2.4283315614  CLST      46              1.0000000000
       227        46  DCM       H1             -2.0376365686       -0.7679367439       -3.3100297323  CLST      46              1.0000000000
       228        46  DCM       H2             -1.1905769255       -0.4000342265       -1.7292303520  CLST      46              1.0000000000
       229        46  DCM       CL1            -1.6816779849        1.5746820398       -2.9839478773  CLST      46              1.0000000000
       230        46  DCM       CL2            -3.5667369897       -0.1698360214       -1.5752279470  CLST      46              1.0000000000
       231        47  DCM       C              -4.6959512455        9.6941806409       -5.3655604483  CLST      47              1.0000000000
       232        47  DCM       H1             -4.6639046018        9.8829894788       -4.2713140208  CLST      47              1.0000000000
       233        47  DCM       H2             -5.1545043174       10.5504545950       -5.9040540474  CLST      47              1.0000000000
       234        47  DCM       CL1            -3.0286890360        9.4565714369       -5.9659286826  CLST      47              1.0000000000
       235        47  DCM       CL2            -5.6701729431        8.2267044202       -5.6752477914  CLST      47              1.0000000000
       236        48  DCM       C               2.6429873199        9.9403464727       -1.7910578306  CLST      48              1.0000000000
       237        48  DCM       H1              3.5238629877       10.0774229159       -1.1300492342  CLST      48              1.0000000000
       238        48  DCM       H2              2.8181193135       10.4065523408       -2.7820945369  CLST      48              1.0000000000
       239        48  DCM       CL1             2.3391593268        8.1947340911       -2.0149053194  CLST      48              1.0000000000
       240        48  DCM       CL2             1.2263759603       10.7075294021       -1.0214489624  CLST      48              1.0000000000
       241        49  DCM       C              18.0143408531       -1.4365456607       -0.7997622044  CLST      49              1.0000000000
       242        49  DCM       H1             17.7281069823       -0.3909036469       -1.0453299224  CLST      49              1.0000000000
       243        49  DCM       H2             18.8519281199       -1.4574097525       -0.0715053590  CLST      49              1.0000000000
       244        49  DCM       CL1            18.5231931847       -2.2676313219       -2.2978854170  CLST      49              1.0000000000
       245        49  DCM       CL2            16.6052733713       -2.2742722775       -0.0873627691  CLST      49              1.0000000000
       246        50  DCM       C               2.9066626059        5.9499256117       -7.1271476476  CLST      50              1.0000000000
       247        50  DCM       H1              3.4700989736        5.6932570231       -8.0487282831  CLST      50              1.0000000000
       248        50  DCM       H2              2.4138395230        5.0516007002       -6.6994509829  CLST      50              1.0000000000
       249        50  DCM       CL1             4.0392872048        6.6189787876       -5.9166105439  CLST      50              1.0000000000
       250        50  DCM       CL2             1.6569254884        7.1635289735       -7.5278818553  CLST      50              1.0000000000
       251        51  DCM       C              -9.3457757928       -3.4584458129        0.2255824887  CLST      51              1.0000000000
       252        51  DCM       H1             -9.3772898855       -2.8891303188       -0.7266666961  CLST      51              1.0000000000
       253        51  DCM       H2             -9.9857789941       -4.3640650023        0.1680144569  CLST      51              1.0000000000
       254        51  DCM       CL1            -7.6607241243       -3.9542898295        0.5557397220  CLST      51              1.0000000000
       255        51  DCM       CL2            -9.9335997931       -2.4095518265        1.5445606387  CLST      51              1.0000000000
       256        52  DCM       C              -1.7130867158      -11.9788106083       -1.6394403007  CLST      52              1.0000000000
       257        52  DCM       H1             -2.0595520831      -11.5674538372       -2.6109850408  CLST      52              1.0000000000
       258        52  DCM       H2             -1.8709738430      -11.2498842588       -0.8167837781  CLST      52              1.0000000000
       259        52  DCM       CL1             0.0308340366      -12.3583535792       -1.7548814326  CLST      52              1.0000000000
       260        52  DCM       CL2            -2.6359801748      -13.4666890332       -1.2812497406  CLST      52              1.0000000000
       261        53  DCM       C               7.2337542957        2.1460599876        6.2595116013  CLST      53              1.0000000000
       262        53  DCM       H1              7.5090077078        3.1264266617        5.8174254078  CLST      53              1.0000000000
       263        53  DCM       H2              7.6105400911        1.3079285623        5.6365250730  CLST      53              1.0000000000
       264        53  DCM       CL1             7.9509009657        2.0282906103        7.8924440199  CLST      53              1.0000000000
       265        53  DCM       CL2             5.4513607847        2.0347988570        6.3687944961  CLST      53              1.0000000000
       266        54  DCM       C              -7.2609756527       -0.1502860795       -0.4984076275  CLST      54              1.0000000000
       267        54  DCM       H1             -7.6039635506       -0.7345863189        0.3805020989  CLST      54              1.0000000000
       268        54  DCM       H2             -6.2337609173        0.2399943729       -0.3406434905  CLST      54              1.0000000000
       269        54  DCM       CL1            -8.3760478851        1.2234023244       -0.7633798005  CLST      54              1.0000000000
       270        54  DCM       CL2            -7.2619041174       -1.2166298972       -1.9295502757  CLST      54              1.0000000000
       271        55  DCM       C               8.6939294370        0.6040206676       -0.1297348273  CLST      55              1.0000000000
       272        55  DCM       H1              8.7649067278       -0.1638497938       -0.9272999840  CLST      55              1.0000000000
       273        55  DCM       H2              7.8193225395        1.2646097347       -0.2979314276  CLST      55              1.0000000000
       274        55  DCM       CL1             8.5092561245       -0.2003638079        1.4520296502  CLST      55              1.0000000000
       275        55  DCM       CL2            10.1882064576        1.5831167663       -0.1336541533  CLST      55              1.0000000000
       276        56  DCM       C               4.5874099434       -3.0704707222       -6.4120641576  CLST      56              1.0000000000
       277        56  DCM       H1              5.4882307956       -3.6186940840       -6.0641757922  CLST      56              1.0000000000
       278        56  DCM       H2              3.7203628163       -3.7539010900       -6.5265646333  CLST      56              1.0000000000
       279        56  DCM       CL1             4.1756689975       -1.8076809750       -5.2130796455  CLST      56              1.0000000000
       280        56  DCM       CL2             4.9424678434       -2.3173385087       -7.9942872785  CLST      56              1.0000000000
       281        57  DCM       C               7.1215886283       -1.8361557060      -10.9698819316  CLST      57              1.0000000000
       282        57  DCM       H1              7.5737207150       -1.5841937526      -11.9498215219  CLST      57              1.0000000000
       283        57  DCM       H2              6.1114929478       -1.3988264214      -10.8647303375  CLST      57              1.0000000000
       284        57  DCM       CL1             6.9932778457       -3.6166585112      -10.8292332989  CLST      57              1.0000000000
       285        57  DCM       CL2             8.1696980368       -1.1992475748       -9.6624961311  CLST      57              1.0000000000
       286        58  DCM       C               7.7474963851        1.6724158110       -7.1983775877  CLST      58              1.0000000000
       287        58  DCM       H1              7.7010839511        1.5020370208       -8.2939454423  CLST      58              1.0000000000
       288        58  DCM       H2              8.7831369394        1.5350916198       -6.8183019252  CLST      58              1.0000000000
       289        58  DCM       CL1             7.2063325676        3.3396131874       -6.8431725186  CLST      58              1.0000000000
       290        58  DCM       CL2             6.6746282915        0.4992437408       -6.3839062655  CLST      58              1.0000000000
       291        59  DCM       C              -2.8769142681        6.6434583311        5.1511662111  CLST      59              1.0000000000
       292        59  DCM       H1             -2.8815022866        5.8076482144        4.4204983762  CLST      59              1.0000000000
       293        59  DCM       H2             -1.9558053826        7.2548624627        5.0517278678  CLST      59              1.0000000000
       294        59  DCM       CL1            -4.3016648775        7.6824666717        4.8569692719  CLST      59              1.0000000000
       295        59  DCM       CL2            -2.9565100150        5.9682673801        6.8051670605  CLST      59              1.0000000000
       296        60  DCM       C              -0.4596590016        3.9195846832       -7.9930231636  CLST      60              1.0000000000
       297        60  DCM       H1             -0.6791144055        4.9605815435       -7.6748145037  CLST      60              1.0000000000
       298        60  DCM       H2             -1.3809436485        3.4054580816       -8.3369222317  CLST      60              1.0000000000
       299        60  DCM       CL1             0.2218830212        3.0154445852       -6.6123429529  CLST      60              1.0000000000
       300        60  DCM       CL2             0.7224880354        3.9605506531       -9.3311087493  CLST      60              1.0000000000
       301        61  DCM       C               6.7858374541       -9.6371362819       14.2280860281  CLST      61              1.0000000000
       302        61  DCM       H1              6.3029922878      -10.4024902325       13.5858135334  CLST      61              1.0000000000
       303        61  DCM       H2              7.5494986322      -10.0963947445       14.8908276080  CLST      61              1.0000000000
       304        61  DCM       CL1             7.5770493595       -8.4205039308       13.1840767300  CLST      61              1.0000000000
       305        61  DCM       CL2             5.5359233147       -8.8520495158       15.2374108563  CLST      61              1.0000000000
       306        62  DCM       C              -3.8243198969        7.0825282616       -2.7097491943  CLST      62              1.0000000000
       307        62  DCM       H1             -2.9603039124        7.6843068692       -3.0547227800  CLST      62              1.0000000000
       308        62  DCM       H2             -4.3706748836        6.6447004647       -3.5683401946  CLST      62              1.0000000000
       309        62  DCM       CL1            -4.9407912304        8.1268382811       -1.7875647047  CLST      62              1.0000000000
       310        62  DCM       CL2            -3.2290803492        5.7632300741       -1.6663707955  CLST      62              1.0000000000
       311        63  DCM       C               3.5211301447       13.6838469569       -1.8307353915  CLST      63              1.0000000000
       312        63  DCM       H1              3.7689306899       14.6776261732       -2.2649769935  CLST      63              1.0000000000
       313        63  DCM       H2              2.7834803072       13.1456738441       -2.4633936006  CLST      63              1.0000000000
       314        63  DCM       CL1             5.0133150252       12.7048445915       -1.7235922126  CLST      63              1.0000000000
       315        63  DCM       CL2             2.8304549724       13.9167288204       -0.1996402927  CLST      63              1.0000000000
       316        64  DCM       C             -11.0036526529       -5.6182808687        2.9178171618  CLST      64              1.0000000000
       317        64  DCM       H1            -11.6233806150       -5.7551417429        2.0063257529  CLST      64              1.0000000000
       318        64  DCM       H2            -10.0076850797       -5.1983959473        2.6654646782  CLST      64              1.0000000000
       319        64  DCM       CL1           -11.8427462126       -4.4960746850        4.0262495886  CLST      64              1.0000000000
       320        64  DCM       CL2           -10.7781739875       -7.2014322596        3.7157034545  CLST      64              1.0000000000
       321        65  DCM       C              -7.6445136736        2.2347176548       10.3005764187  CLST      65              1.0000000000
       322        65  DCM       H1             -6.7671054422        2.9148945016       10.3378914966  CLST      65              1.0000000000
       323        65  DCM       H2             -8.1879882687        2.2278433714       11.2689394847  CLST      65              1.0000000000
       324        65  DCM       CL1            -8.7569418190        2.7905787639        9.0151412843  CLST      65              1.0000000000
       325        65  DCM       CL2            -7.0783796073        0.5772084552        9.9427965365  CLST      65              1.0000000000
       326        66  DCM       C              -3.6493121892        9.0303353905        1.5779605000  CLST      66              1.0000000000
       327        66  DCM       H1             -3.3492479877        9.1149066516        0.5130523250  CLST      66              1.0000000000
       328        66  DCM       H2             -3.4634341824        8.0057321484        1.9612925998  CLST      66              1.0000000000
       329        66  DCM       CL1            -2.6971180103       10.1887065386        2.5484755457  CLST      66              1.0000000000
       330        66  DCM       CL2            -5.3901314102        9.4109060244        1.7200589378  CLST      66              1.0000000000
       331        67  DCM       C              -1.5503466759      -17.0247580329       -3.0197745790  CLST      67              1.0000000000
       332        67  DCM       H1             -1.6677322340      -16.5712767951       -4.0251752424  CLST      67              1.0000000000
       333        67  DCM       H2             -2.5056250219      -16.9808398360       -2.4564687552  CLST      67              1.0000000000
       334        67  DCM       CL1            -1.0548805754      -18.7311236482       -3.2111341502  CLST      67              1.0000000000
       335        67  DCM       CL2            -0.2952637470      -16.1312962645       -2.1145511045  CLST      67              1.0000000000
       336        68  DCM       C              -6.3396197595       -5.9595477582        8.8029186270  CLST      68              1.0000000000
       337        68  DCM       H1             -6.9937587124       -5.0944240262        8.5662440031  CLST      68              1.0000000000
       338        68  DCM       H2             -6.8938293994       -6.9174500052        8.7074148526  CLST      68              1.0000000000
       339        68  DCM       CL1            -4.9579305080       -5.9672711310        7.6686833132  CLST      68              1.0000000000
       340        68  DCM       CL2            -5.7454656070       -5.7953377455       10.4805358576  CLST      68              1.0000000000
       341        69  DCM       C               2.9154819892      -11.6621504316       15.4008022149  CLST      69              1.0000000000
       342        69  DCM       H1              1.9423955626      -11.1698141269       15.1920722873  CLST      69              1.0000000000
       343        69  DCM       H2              3.5603753946      -11.0173603820       16.0354273010  CLST      69              1.0000000000
       344        69  DCM       CL1             2.6148367431      -13.2061316346       16.2508961482  CLST      69              1.0000000000
       345        69  DCM       CL2             3.7487790087      -11.9758928401       13.8506669864  CLST      69              1.0000000000
       346        70  DCM       C              -2.0953136998        0.1769047900       -7.8478595583  CLST      70              1.0000000000
       347        70  DCM       H1             -1.2980956645        0.8270678040       -8.2644015665  CLST      70              1.0000000000
       348        70  DCM       H2             -3.0739818581        0.6996123759       -7.8400808202  CLST      70              1.0000000000
       349        70  DCM       CL1            -2.2360298677       -1.2913319904       -8.8554906750  CLST      70              1.0000000000
       350        70  DCM       CL2            -1.6635920629       -0.2704392356       -6.1736543076  CLST      70              1.0000000000
       351        71  DCM       C               8.4145369009        9.0223099763        5.0425664501  CLST      71              1.0000000000
       352        71  DCM       H1              8.5088370301        7.9340087243        4.8494441856  CLST      71              1.0000000000
       353        71  DCM       H2              9.4055879207        9.4817906063        5.2364627850  CLST      71              1.0000000000
       354        71  DCM       CL1             7.6788239185        9.8055874326        3.6135643379  CLST      71              1.0000000000
       355        71  DCM       CL2             7.3691097477        9.2707982815        6.4712919850  CLST      71              1.0000000000
       356        72  DCM       C               4.8658820093        0.7757872303        0.4520095897  CLST      72              1.0000000000
       357        72  DCM       H1              3.8316210716        0.6475607433        0.8306764111  CLST      72              1.0000000000
       358        72  DCM       H2              5.6058440409        0.6072355038        1.2616134269  CLST      72              1.0000000000
       359        72  DCM       CL1             5.1635376328       -0.4052308057       -0.8565569946  CLST      72              1.0000000000
       360        72  DCM       CL2             5.0499432908        2.4383976498       -0.1802035924  CLST      72              1.0000000000
       361        73  DCM       C              -0.8104510633       11.0149042999       -9.6745939677  CLST      73              1.0000000000
       362        73  DCM       H1             -0.0364105006       11.0608467812      -10.4735957278  CLST      73              1.0000000000
       363        73  DCM       H2             -1.2063449634       12.0251986736       -9.4427455923  CLST      73              1.0000000000
       364        73  DCM       CL1            -2.1505099480        9.9729763394      -10.2264881763  CLST      73              1.0000000000
       365        73  DCM       CL2            -0.0716541436       10.3219671232       -8.1963280234  CLST      73              1.0000000000
       366        74  DCM       C               3.4702123118        1.6952605973       -3.8987574465  CLST      74              1.0000000000
       367        74  DCM       H1              4.2028959342        1.3536514611       -4.6603254319  CLST      74              1.0000000000
       368        74  DCM       H2              3.7878303211        1.3940726388       -2.8790008372  CLST      74              1.0000000000
       369        74  DCM       CL1             3.3456150580        3.4783465964       -3.9671304763  CLST      74              1.0000000000
       370        74  DCM       CL2             1.8782843150        0.9614116472       -4.2497722612  CLST      74              1.0000000000
       371        75  DCM       C              19.5703273211       -4.7084977853        0.5392989139  CLST      75              1.0000000000
       372        75  DCM       H1             19.8507302046       -5.7820847038        0.5883556997  CLST      75              1.0000000000
       373        75  DCM       H2             18.7744129176       -4.5382011242       -0.2164674703  CLST      75              1.0000000000
       374        75  DCM       CL1            18.9716369637       -4.1902562843        2.1417223155  CLST      75              1.0000000000
       375        75  DCM       CL2            21.0124272020       -3.7507759680        0.0935088113  CLST      75              1.0000000000
       376        76  DCM       C               1.1501632907      -10.1112759046       -4.7483910483  CLST      76              1.0000000000
       377        76  DCM       H1              1.4393938795       -9.0401211020       -4.6957680625  CLST      76              1.0000000000
       378        76  DCM       H2              1.4710324435      -10.6571681786       -3.8357418299  CLST      76              1.0000000000
       379        76  DCM       CL1            -0.6272740121      -10.2245681210       -4.9016260784  CLST      76              1.0000000000
       380        76  DCM       CL2             1.9315275447      -10.8536222775       -6.1742289710  CLST      76              1.0000000000
       381        77  DCM       C              -3.3606116373        1.8752884690      -10.9487248765  CLST      77              1.0000000000
       382        77  DCM       H1             -3.8208241771        2.0193983517      -11.9490263990  CLST      77              1.0000000000
       383        77  DCM       H2             -3.7368510318        0.9480025260      -10.4665938251  CLST      77              1.0000000000
       384        77  DCM       CL1            -1.5877035241        1.7547924249      -11.1383459943  CLST      77              1.0000000000
       385        77  DCM       CL2            -3.7646695264        3.2771652622       -9.9156622925  CLST      77              1.0000000000
       386        78  DCM       C              20.8682725868       -0.9494676837        2.3851728782  CLST      78              1.0000000000
       387        78  DCM       H1             19.8423173337       -1.3532565878        2.2585457839  CLST      78              1.0000000000
       388        78  DCM       H2             21.6050813852       -1.7691511828        2.5201004034  CLST      78              1.0000000000
       389        78  DCM       CL1            21.3013444999       -0.0087777574        0.9276459841  CLST      78              1.0000000000
       390        78  DCM       CL2            20.9004293623        0.1092729457        3.8249238006  CLST      78              1.0000000000
       391        79  DCM       C               4.6236638246        7.8624663833        4.1754889020  CLST      79              1.0000000000
       392        79  DCM       H1              4.7873460690        7.9823769302        3.0845562065  CLST      79              1.0000000000
       393        79  DCM       H2              5.5688123094        7.6074215819        4.6957625407  CLST      79              1.0000000000
       394        79  DCM       CL1             3.4395936055        6.5489506302        4.4447620216  CLST      79              1.0000000000
       395        79  DCM       CL2             3.9975645841        9.4001381455        4.8379176047  CLST      79              1.0000000000
       396        80  DCM       C               0.4452386514       11.4510906231       -4.6316684713  CLST      80              1.0000000000
       397        80  DCM       H1             -0.2995423329       11.3828459430       -5.4512080341  CLST      80              1.0000000000
       398        80  DCM       H2              0.3677406790       10.5723320131       -3.9541671463  CLST      80              1.0000000000
       399        80  DCM       CL1             2.0908908816       11.4965657376       -5.3309894436  CLST      80              1.0000000000
       400        80  DCM       CL2             0.1428769195       12.9430094147       -3.6956714087  CLST      80              1.0000000000
       401        81  DCM       C              17.2055973322        0.6282597107        3.3146007725  CLST      81              1.0000000000
       402        81  DCM       H1             16.1881136966        1.0428565097        3.4759259960  CLST      81              1.0000000000
       403        81  DCM       H2             17.9192229953        1.0102220518        4.0752014076  CLST      81              1.0000000000
       404        81  DCM       CL1            17.1315227297       -1.1541025610        3.4303433172  CLST      81              1.0000000000
       405        81  DCM       CL2            17.7772151393        1.1079302110        1.6902983595  CLST      81              1.0000000000
       406        82  DCM       C              11.3437399992       -5.8416228360       -2.5400815265  CLST      82              1.0000000000
       407        82  DCM       H1             11.8964392289       -6.4402935830       -3.2946689645  CLST      82              1.0000000000
       408        82  DCM       H2             11.1228077935       -4.8216996236       -2.9211153931  CLST      82              1.0000000000
       409        82  DCM       CL1             9.8046674921       -6.6673509330       -2.1570054592  CLST      82              1.0000000000
       410        82  DCM       CL2            12.3429757105       -5.7069856666       -1.0640322661  CLST      82              1.0000000000
       411        83  DCM       C              -5.7995320481        5.9272046378        1.5026030508  CLST      83              1.0000000000
       412        83  DCM       H1             -5.7674503622        6.5955561702        0.6177499200  CLST      83              1.0000000000
       413        83  DCM       H2             -6.0852247497        6.4856037674        2.4191258402  CLST      83              1.0000000000
       414        83  DCM       CL1            -6.9995410957        4.6394756484        1.2099427192  CLST      83              1.0000000000
       415        83  DCM       CL2            -4.1820562686        5.2087174533        1.7358404689  CLST      83              1.0000000000
       416        84  DCM       C               5.6351852719       -4.1099141321        0.3236053129  CLST      84              1.0000000000
       417        84  DCM       H1              5.2697659897       -3.3577737003       -0.4059045142  CLST      84              1.0000000000
       418        84  DCM       H2              4.7891884402       -4.6236129079        0.8281285838  CLST      84              1.0000000000
       419        84  DCM       CL1             6.6238145767       -5.3246449102       -0.5372591696  CLST      84              1.0000000000
       420        84  DCM       CL2             6.6256535654       -3.2858479450        1.5595346840  CLST      84              1.0000000000
       421        85  DCM       C               1.4184643568      -15.6093935984       -9.4260243285  CLST      85              1.0000000000
       422        85  DCM       H1              1.8315861204      -16.3050164597       -8.6650556073  CLST      85              1.0000000000
       423        85  DCM       H2              1.8911475060      -15.7737079338      -10.4174365095  CLST      85              1.0000000000
       424        85  DCM       CL1            -0.3422033537      -15.8844597774       -9.5686518905  CLST      85              1.0000000000
       425        85  DCM       CL2             1.7301715462      -13.9277612170       -8.9054998984  CLST      85              1.0000000000
       426        86  DCM       C             -11.3967552908       -1.1778589088        5.2599962418  CLST      86              1.0000000000
       427        86  DCM       H1            -11.6946636391       -2.0959878440        5.8096244383  CLST      86              1.0000000000
       428        86  DCM       H2            -11.4335251904       -1.3428262378        4.1621354255  CLST      86              1.0000000000
       429        86  DCM       CL1           -12.5116249877        0.1497377206        5.6952119229  CLST      86              1.0000000000
       430        86  DCM       CL2            -9.7308294170       -0.7390876676        5.7251338491  CLST      86              1.0000000000
       431        87  DCM       C              -6.4891790693        4.2933261390       -2.2423660658  CLST      87              1.0000000000
       432        87  DCM       H1             -6.2065372809        5.1995032386       -1.6672250124  CLST      87              1.0000000000
       433        87  DCM       H2             -7.5069869378        3.9502799554       -1.9647219619  CLST      87              1.0000000000
       434        87  DCM       CL1            -6.4547006372        4.6780405817       -3.9879795668  CLST      87              1.0000000000
       435        87  DCM       CL2            -5.3246835965        2.9857397939       -1.8820138753  CLST      87              1.0000000000
       436        88  DCM       C               5.1560824410        7.5348036326       -0.1461758595  CLST      88              1.0000000000
       437        88  DCM       H1              5.4183710028        7.4744569223       -1.2238431104  CLST      88              1.0000000000
       438        88  DCM       H2              4.4797419168        8.3896481608        0.0539498106  CLST      88              1.0000000000
       439        88  DCM       CL1             4.3289662484        6.0262421950        0.3388350155  CLST      88              1.0000000000
       440        88  DCM       CL2             6.6463900368        7.7606604722        0.8097726441  CLST      88              1.0000000000
       441        89  DCM       C              -9.8860736756        3.8376840232       -5.4647527307  CLST      89              1.0000000000
       442        89  DCM       H1            -10.5813798083        4.7038621135       -5.3999572957  CLST      89              1.0000000000
       443        89  DCM       H2             -8.8982500058        4.1494681028       -5.8696959057  CLST      89              1.0000000000
       444        89  DCM       CL1            -9.6527708094        3.1590958310       -3.8308502511  CLST      89              1.0000000000
       445        89  DCM       CL2           -10.5945401683        2.5978865516       -6.5364395423  CLST      89              1.0000000000
       446        90  DCM       C              -2.1898988230      -13.0099333766       -8.2788225947  CLST      90              1.0000000000
       447        90  DCM       H1             -1.6785126823      -13.8675499439       -7.7942985200  CLST      90              1.0000000000
       448        90  DCM       H2             -2.5000378394      -13.2655977620       -9.3139447982  CLST      90              1.0000000000
       449        90  DCM       CL1            -3.6388164290      -12.5812549004       -7.3227324205  CLST      90              1.0000000000
       450        90  DCM       CL2            -1.0624043484      -11.6249047974       -8.3302945788  CLST      90              1.0000000000
       451        91  DCM       C               4.9147018895       12.3550597939        2.5917995820  CLST      91              1.0000000000
       452        91  DCM       H1              5.2642160505       13.2212153172        1.9910363028  CLST      91              1.0000000000
       453        91  DCM       H2              5.6550029861       12.0798634440        3.3711987412  CLST      91              1.0000000000
       454        91  DCM       CL1             3.3690242447       12.7832229805        3.3828385973  CLST      91              1.0000000000
       455        91  DCM       CL2             4.6703026631       10.9594710632        1.5036395416  CLST      91              1.0000000000
       456        92  DCM       C             -11.3630624572       -3.9762871606       -3.7655628074  CLST      92              1.0000000000
       457        92  DCM       H1            -11.9939659927       -3.1165708519       -4.0723576380  CLST      92              1.0000000000
       458        92  DCM       H2            -11.4363942518       -4.8064433685       -4.4994057659  CLST      92              1.0000000000
       459        92  DCM       CL1            -9.6607969791       -3.4410260682       -3.6614409319  CLST      92              1.0000000000
       460        92  DCM       CL2           -11.9130283474       -4.5604755428       -2.1683606096  CLST      92              1.0000000000
