* INITIAL
*  DATE:     6/28/26      2:38:50      CREATED BY USER: boittier
*
       460  EXT
         1         1  DCM       C              -5.2730405056       -2.5346394738        0.3591450616  CLST      1               1.0000000000
         2         1  DCM       H1             -4.4099293685       -2.7604461431        1.0206277511  CLST      1               1.0000000000
         3         1  DCM       H2             -5.8177315126       -1.6317077042        0.7076438255  CLST      1               1.0000000000
         4         1  DCM       CL1            -4.6754208992       -2.2485288461       -1.3017403483  CLST      1               1.0000000000
         5         1  DCM       CL2            -6.3933196660       -3.9279312750        0.3690484999  CLST      1               1.0000000000
         6         2  DCM       C             -15.5499719356       -0.7986980668        1.3184356785  CLST      2               1.0000000000
         7         2  DCM       H1            -15.0104930699       -1.6931877228        1.6954265775  CLST      2               1.0000000000
         8         2  DCM       H2            -14.8535444702        0.0537672886        1.1717205818  CLST      2               1.0000000000
         9         2  DCM       CL1           -16.3159614101       -1.1986928633       -0.2460459171  CLST      2               1.0000000000
        10         2  DCM       CL2           -16.7995242922       -0.3313829483        2.5063498913  CLST      2               1.0000000000
        11         3  DCM       C              -5.7941329311        4.8109593119       13.4138856399  CLST      3               1.0000000000
        12         3  DCM       H1             -6.2066997323        5.7254899621       13.8903384723  CLST      3               1.0000000000
        13         3  DCM       H2             -5.1629667618        5.0674052619       12.5364774512  CLST      3               1.0000000000
        14         3  DCM       CL1            -4.7979300603        3.9318945330       14.6099752833  CLST      3               1.0000000000
        15         3  DCM       CL2            -7.1473625473        3.7749066647       12.8738024095  CLST      3               1.0000000000
        16         4  DCM       C              14.4027712831       -1.2887681631      -10.8991647600  CLST      4               1.0000000000
        17         4  DCM       H1             14.1140699973       -0.2176232197      -10.8497837341  CLST      4               1.0000000000
        18         4  DCM       H2             15.0818384370       -1.4806861369      -11.7565717706  CLST      4               1.0000000000
        19         4  DCM       CL1            15.2388856538       -1.7360876860       -9.3833928326  CLST      4               1.0000000000
        20         4  DCM       CL2            12.9279222432       -2.2807171444      -11.0925633690  CLST      4               1.0000000000
        21         5  DCM       C              18.0000880129        3.7775964061        5.9572894781  CLST      5               1.0000000000
        22         5  DCM       H1             18.5822535738        4.3600801292        6.7018240403  CLST      5               1.0000000000
        23         5  DCM       H2             17.0633256432        3.3836769511        6.4050034134  CLST      5               1.0000000000
        24         5  DCM       CL1            17.5831170712        4.8441812560        4.5852679501  CLST      5               1.0000000000
        25         5  DCM       CL2            18.9949179151        2.4072741747        5.3814248101  CLST      5               1.0000000000
        26         6  DCM       C              12.0478457003       -3.8881554830       -1.8649568952  CLST      6               1.0000000000
        27         6  DCM       H1             13.0742676702       -4.2945140762       -1.7540309489  CLST      6               1.0000000000
        28         6  DCM       H2             12.0696030156       -2.8378906494       -2.2251221707  CLST      6               1.0000000000
        29         6  DCM       CL1            11.1549217578       -4.8913634978       -3.0438883010  CLST      6               1.0000000000
        30         6  DCM       CL2            11.2332395902       -3.9434482349       -0.2746425706  CLST      6               1.0000000000
        31         7  DCM       C             -18.4093556129        2.0303196399        0.1436649617  CLST      7               1.0000000000
        32         7  DCM       H1            -19.0842820429        2.4347746141       -0.6397680858  CLST      7               1.0000000000
        33         7  DCM       H2            -18.4613521056        0.9216437339        0.1825036033  CLST      7               1.0000000000
        34         7  DCM       CL1           -16.7301582624        2.5221862853       -0.2245264997  CLST      7               1.0000000000
        35         7  DCM       CL2           -18.9015398815        2.6888608132        1.7311195977  CLST      7               1.0000000000
        36         8  DCM       C              10.7357148009       -0.2152646585      -13.1434702363  CLST      8               1.0000000000
        37         8  DCM       H1             10.1272825714       -0.4342632373      -12.2403903559  CLST      8               1.0000000000
        38         8  DCM       H2             11.2440389379       -1.1310795302      -13.5115563717  CLST      8               1.0000000000
        39         8  DCM       CL1             9.6665442549        0.4119776061      -14.4309812828  CLST      8               1.0000000000
        40         8  DCM       CL2            11.9703843609        1.0110382841      -12.7326132485  CLST      8               1.0000000000
        41         9  DCM       C              -2.6423599191       -2.0600283618      -11.9202640218  CLST      9               1.0000000000
        42         9  DCM       H1             -2.3560587367       -1.4821006210      -11.0175906126  CLST      9               1.0000000000
        43         9  DCM       H2             -2.2822260137       -1.5611364248      -12.8452367447  CLST      9               1.0000000000
        44         9  DCM       CL1            -1.9159987379       -3.6891656023      -11.8144217969  CLST      9               1.0000000000
        45         9  DCM       CL2            -4.4240123891       -2.1902233323      -11.9817214353  CLST      9               1.0000000000
        46        10  DCM       C              -8.7951044187        9.3763646646       -2.0086934354  CLST      10              1.0000000000
        47        10  DCM       H1             -9.2973093672       10.1311762561       -2.6480537371  CLST      10              1.0000000000
        48        10  DCM       H2             -9.4051909563        8.4525392143       -1.9253660132  CLST      10              1.0000000000
        49        10  DCM       CL1            -7.2108666477        8.9640759310       -2.7270518043  CLST      10              1.0000000000
        50        10  DCM       CL2            -8.5632157542       10.0710141196       -0.3785831609  CLST      10              1.0000000000
        51        11  DCM       C               0.7569975125      -21.6924072928        4.9197974072  CLST      11              1.0000000000
        52        11  DCM       H1             -0.0188842368      -22.3818642127        5.3146855545  CLST      11              1.0000000000
        53        11  DCM       H2              0.3123400537      -20.9490116319        4.2253264785  CLST      11              1.0000000000
        54        11  DCM       CL1             1.9901863935      -22.6442008302        4.0440817241  CLST      11              1.0000000000
        55        11  DCM       CL2             1.5171582512      -20.8267149065        6.2867098999  CLST      11              1.0000000000
        56        12  DCM       C              23.1620880954        6.0294202672       10.4668536164  CLST      12              1.0000000000
        57        12  DCM       H1             22.7626092835        7.0487545242       10.6527426622  CLST      12              1.0000000000
        58        12  DCM       H2             22.9842589776        5.7158855081        9.4163311377  CLST      12              1.0000000000
        59        12  DCM       CL1            24.9215412608        6.0272489793       10.7837558770  CLST      12              1.0000000000
        60        12  DCM       CL2            22.3489717809        4.8772429769       11.5654551722  CLST      12              1.0000000000
        61        13  DCM       C              -3.0517403582       -4.8261901376        4.7477175647  CLST      13              1.0000000000
        62        13  DCM       H1             -3.1533785355       -5.6454065155        4.0049947859  CLST      13              1.0000000000
        63        13  DCM       H2             -1.9905526981       -4.6847392904        5.0431885052  CLST      13              1.0000000000
        64        13  DCM       CL1            -3.6646480372       -3.3071531253        4.0295112939  CLST      13              1.0000000000
        65        13  DCM       CL2            -4.0094249222       -5.2385489582        6.1997741207  CLST      13              1.0000000000
        66        14  DCM       C              -2.7075139028       -0.6479182996       18.2184799515  CLST      14              1.0000000000
        67        14  DCM       H1             -2.6388114559        0.3877891271       18.6136572374  CLST      14              1.0000000000
        68        14  DCM       H2             -2.6031425620       -0.6605586432       17.1129211342  CLST      14              1.0000000000
        69        14  DCM       CL1            -1.4029158288       -1.6342932578       18.9400950977  CLST      14              1.0000000000
        70        14  DCM       CL2            -4.2965718964       -1.3347477201       18.6612071408  CLST      14              1.0000000000
        71        15  DCM       C              16.3535066325       -8.8355992307       -1.8996203712  CLST      15              1.0000000000
        72        15  DCM       H1             16.0289166404       -8.8923127660       -0.8392325926  CLST      15              1.0000000000
        73        15  DCM       H2             15.4799184227       -8.7562589004       -2.5803032256  CLST      15              1.0000000000
        74        15  DCM       CL1            17.3901114537       -7.3948527869       -2.1135142724  CLST      15              1.0000000000
        75        15  DCM       CL2            17.2749652828      -10.3127273973       -2.3044620935  CLST      15              1.0000000000
        76        16  DCM       C              -1.7934288013       -1.7664426546       -7.3108378776  CLST      16              1.0000000000
        77        16  DCM       H1             -1.1207815076       -1.1900598013       -6.6409093348  CLST      16              1.0000000000
        78        16  DCM       H2             -2.4628048171       -2.4348572021       -6.7282910888  CLST      16              1.0000000000
        79        16  DCM       CL1            -2.7897712872       -0.6218952053       -8.2561779640  CLST      16              1.0000000000
        80        16  DCM       CL2            -0.7992291310       -2.7588275085       -8.4162812799  CLST      16              1.0000000000
        81        17  DCM       C              13.4691593817       -0.1962717268      -15.9234425285  CLST      17              1.0000000000
        82        17  DCM       H1             13.9894128841        0.7793387378      -15.8182300177  CLST      17              1.0000000000
        83        17  DCM       H2             12.3737393431       -0.0806171921      -15.7837775800  CLST      17              1.0000000000
        84        17  DCM       CL1            13.7788329346       -0.8492704368      -17.5579537167  CLST      17              1.0000000000
        85        17  DCM       CL2            14.0990870671       -1.3279288260      -14.6909869388  CLST      17              1.0000000000
        86        18  DCM       C               1.6301342929      -21.4314717503        0.3260561946  CLST      18              1.0000000000
        87        18  DCM       H1              1.5691741200      -21.0890738829       -0.7287272332  CLST      18              1.0000000000
        88        18  DCM       H2              1.3162924977      -22.4922446422        0.4223129307  CLST      18              1.0000000000
        89        18  DCM       CL1             3.3186106090      -21.2724130848        0.8918484503  CLST      18              1.0000000000
        90        18  DCM       CL2             0.5538846959      -20.4143396551        1.3272862412  CLST      18              1.0000000000
        91        19  DCM       C              -2.9284227308       -0.7542649326       22.7202902548  CLST      19              1.0000000000
        92        19  DCM       H1             -2.1756028187       -1.5565884805       22.5699363802  CLST      19              1.0000000000
        93        19  DCM       H2             -2.9411427436       -0.4076091120       23.7752718205  CLST      19              1.0000000000
        94        19  DCM       CL1            -2.5219275031        0.6274779383       21.6617672814  CLST      19              1.0000000000
        95        19  DCM       CL2            -4.5456561940       -1.3890345232       22.2991159404  CLST      19              1.0000000000
        96        20  DCM       C             -15.6640031396       -4.6381157488        2.9770712419  CLST      20              1.0000000000
        97        20  DCM       H1            -15.7243734657       -5.6943702447        3.3138259640  CLST      20              1.0000000000
        98        20  DCM       H2            -14.6188717935       -4.2678745342        3.0152060796  CLST      20              1.0000000000
        99        20  DCM       CL1           -16.2552537711       -4.5286810008        1.2943747307  CLST      20              1.0000000000
       100        20  DCM       CL2           -16.6789691276       -3.6270104367        4.0451590816  CLST      20              1.0000000000
       101        21  DCM       C              16.5035704567       16.5670822017        2.6105297581  CLST      21              1.0000000000
       102        21  DCM       H1             17.1935359198       16.1743990280        3.3867571053  CLST      21              1.0000000000
       103        21  DCM       H2             16.3438957809       17.6592808317        2.7339832604  CLST      21              1.0000000000
       104        21  DCM       CL1            17.2074274888       16.2603843346        0.9963138821  CLST      21              1.0000000000
       105        21  DCM       CL2            14.9298118691       15.7319374061        2.7526452553  CLST      21              1.0000000000
       106        22  DCM       C              21.1892773214        1.9171989320        8.4429060328  CLST      22              1.0000000000
       107        22  DCM       H1             20.2943534524        1.4309818768        8.0019071989  CLST      22              1.0000000000
       108        22  DCM       H2             22.1191676078        1.5612337252        7.9519003755  CLST      22              1.0000000000
       109        22  DCM       CL1            21.0577922672        3.6863922571        8.2251680524  CLST      22              1.0000000000
       110        22  DCM       CL2            21.2635230910        1.5263222956       10.1857379737  CLST      22              1.0000000000
       111        23  DCM       C              -2.7119622949       -2.1792638856        7.9963624826  CLST      23              1.0000000000
       112        23  DCM       H1             -2.6762139320       -1.1690133910        8.4569657255  CLST      23              1.0000000000
       113        23  DCM       H2             -3.6068388312       -2.2938022757        7.3491985324  CLST      23              1.0000000000
       114        23  DCM       CL1            -1.2435123535       -2.4189781941        7.0048828945  CLST      23              1.0000000000
       115        23  DCM       CL2            -2.7735767694       -3.4064119893        9.2951538963  CLST      23              1.0000000000
       116        24  DCM       C              -7.8359645217       -1.6137886419       20.1473750197  CLST      24              1.0000000000
       117        24  DCM       H1             -8.6048715781       -2.4056334160       20.0242475956  CLST      24              1.0000000000
       118        24  DCM       H2             -6.8179952957       -2.0538228508       20.2096764579  CLST      24              1.0000000000
       119        24  DCM       CL1            -7.9098950469       -0.5112831687       18.7429892828  CLST      24              1.0000000000
       120        24  DCM       CL2            -8.1690264681       -0.7020828589       21.6484080707  CLST      24              1.0000000000
       121        25  DCM       C              -5.8411310041        1.8398838876       20.3659510288  CLST      25              1.0000000000
       122        25  DCM       H1             -5.5697657116        0.7824125100       20.5677293313  CLST      25              1.0000000000
       123        25  DCM       H2             -6.9308751620        1.9428570632       20.1801552480  CLST      25              1.0000000000
       124        25  DCM       CL1            -5.4018297578        2.8337132696       21.7847941040  CLST      25              1.0000000000
       125        25  DCM       CL2            -4.9480182679        2.4016112499       18.9226672058  CLST      25              1.0000000000
       126        26  DCM       C             -14.7892609460       16.0206953790        3.2510397592  CLST      26              1.0000000000
       127        26  DCM       H1            -14.2591031903       16.0869364409        4.2249595304  CLST      26              1.0000000000
       128        26  DCM       H2            -14.5546999097       16.8954374225        2.6082312371  CLST      26              1.0000000000
       129        26  DCM       CL1           -14.2781821518       14.5284424399        2.4084293477  CLST      26              1.0000000000
       130        26  DCM       CL2           -16.5515772139       15.9773428422        3.5490525974  CLST      26              1.0000000000
       131        27  DCM       C             -17.7001036581        2.1209641768      -15.1287729415  CLST      27              1.0000000000
       132        27  DCM       H1            -16.6142430399        2.2684888261      -15.3098878074  CLST      27              1.0000000000
       133        27  DCM       H2            -18.1092563134        1.3231654268      -15.7839260856  CLST      27              1.0000000000
       134        27  DCM       CL1           -17.9486355108        1.6569870952      -13.4200241126  CLST      27              1.0000000000
       135        27  DCM       CL2           -18.5612333273        3.6493491199      -15.4712997323  CLST      27              1.0000000000
       136        28  DCM       C              17.6927812903       12.8443003627        2.7079188842  CLST      28              1.0000000000
       137        28  DCM       H1             17.5062855119       11.7496703115        2.7276420312  CLST      28              1.0000000000
       138        28  DCM       H2             16.8222000252       13.3870666494        2.2819889523  CLST      28              1.0000000000
       139        28  DCM       CL1            17.9811744374       13.4175000297        4.3759185466  CLST      28              1.0000000000
       140        28  DCM       CL2            19.1309447154       13.1714232530        1.6985522231  CLST      28              1.0000000000
       141        29  DCM       C              24.9155280291        2.6030277751        9.4826055255  CLST      29              1.0000000000
       142        29  DCM       H1             25.8939121157        2.8725406172        9.9343335944  CLST      29              1.0000000000
       143        29  DCM       H2             24.0785693579        2.8487207544       10.1694832385  CLST      29              1.0000000000
       144        29  DCM       CL1            24.7068930528        3.5166546957        7.9602479748  CLST      29              1.0000000000
       145        29  DCM       CL2            24.8915932176        0.8481921861        9.1435157732  CLST      29              1.0000000000
       146        30  DCM       C               7.1020975453        9.7803998218      -20.7737638243  CLST      30              1.0000000000
       147        30  DCM       H1              6.4838891788        9.9905408083      -21.6721107527  CLST      30              1.0000000000
       148        30  DCM       H2              7.0551249409       10.6209620994      -20.0494414295  CLST      30              1.0000000000
       149        30  DCM       CL1             6.4922581174        8.2972810446      -19.9829134923  CLST      30              1.0000000000
       150        30  DCM       CL2             8.8006030147        9.5438063882      -21.2798204234  CLST      30              1.0000000000
       151        31  DCM       C              11.4767751028       14.9991481543       -5.8971822040  CLST      31              1.0000000000
       152        31  DCM       H1             12.0896409423       14.0766868230       -5.9797120404  CLST      31              1.0000000000
       153        31  DCM       H2             11.1376191152       15.1619332778       -4.8520725010  CLST      31              1.0000000000
       154        31  DCM       CL1            12.4612078277       16.3996033143       -6.4133464883  CLST      31              1.0000000000
       155        31  DCM       CL2            10.0444383930       14.8425184744       -6.9559413874  CLST      31              1.0000000000
       156        32  DCM       C             -13.4866563327        8.9932839559       -2.7491888467  CLST      32              1.0000000000
       157        32  DCM       H1            -12.9092527121        9.0504673419       -3.6952740470  CLST      32              1.0000000000
       158        32  DCM       H2            -14.1058559058        9.9034459875       -2.6044340207  CLST      32              1.0000000000
       159        32  DCM       CL1           -14.5567569938        7.5630288702       -2.8072467522  CLST      32              1.0000000000
       160        32  DCM       CL2           -12.3466731878        8.8410978861       -1.3810087157  CLST      32              1.0000000000
       161        33  DCM       C              15.3191017441        0.6819600885       11.6357225344  CLST      33              1.0000000000
       162        33  DCM       H1             15.0222735985       -0.0387693200       10.8460676693  CLST      33              1.0000000000
       163        33  DCM       H2             14.7090115967        0.5419752937       12.5532897596  CLST      33              1.0000000000
       164        33  DCM       CL1            17.0424710833        0.4262604230       12.0352622712  CLST      33              1.0000000000
       165        33  DCM       CL2            15.0735786222        2.3431323176       11.0234805305  CLST      33              1.0000000000
       166        34  DCM       C              10.8236614016       30.9700457440       -5.9251651739  CLST      34              1.0000000000
       167        34  DCM       H1             10.0907714473       31.4946960495       -5.2763504486  CLST      34              1.0000000000
       168        34  DCM       H2             11.7583058166       30.7414356475       -5.3706068848  CLST      34              1.0000000000
       169        34  DCM       CL1            10.0997199108       29.4392464616       -6.4991193969  CLST      34              1.0000000000
       170        34  DCM       CL2            11.2173106523       32.0161428133       -7.3207683168  CLST      34              1.0000000000
       171        35  DCM       C              -6.1306564644       14.2957499487        5.3890387634  CLST      35              1.0000000000
       172        35  DCM       H1             -5.5937090924       15.2467328524        5.1873943530  CLST      35              1.0000000000
       173        35  DCM       H2             -5.9787672528       13.9645469899        6.4381313080  CLST      35              1.0000000000
       174        35  DCM       CL1            -7.8787233923       14.5436165125        5.1052306344  CLST      35              1.0000000000
       175        35  DCM       CL2            -5.5093405094       13.0332303761        4.2858728586  CLST      35              1.0000000000
       176        36  DCM       C             -18.5598973185       14.3099303951        6.1258434211  CLST      36              1.0000000000
       177        36  DCM       H1            -17.4778679399       14.5550778258        6.1344934488  CLST      36              1.0000000000
       178        36  DCM       H2            -18.9614339364       14.3168908152        5.0904954082  CLST      36              1.0000000000
       179        36  DCM       CL1           -19.4384672349       15.5234142361        7.1004416024  CLST      36              1.0000000000
       180        36  DCM       CL2           -18.7857557579       12.6827244211        6.8299180593  CLST      36              1.0000000000
       181        37  DCM       C              14.2349707736       12.5993295031        4.5757036417  CLST      37              1.0000000000
       182        37  DCM       H1             14.3602775260       11.7814510556        5.3162943901  CLST      37              1.0000000000
       183        37  DCM       H2             15.0726985657       13.3245635241        4.6364624359  CLST      37              1.0000000000
       184        37  DCM       CL1            14.1918253719       11.8976440516        2.9324986401  CLST      37              1.0000000000
       185        37  DCM       CL2            12.7061599740       13.4620084472        4.9110825309  CLST      37              1.0000000000
       186        38  DCM       C              -5.4571640707       15.2827907875       -5.3765512056  CLST      38              1.0000000000
       187        38  DCM       H1             -5.2641155441       16.3050867284       -4.9881580881  CLST      38              1.0000000000
       188        38  DCM       H2             -6.5006488009       14.9662198356       -5.1665146484  CLST      38              1.0000000000
       189        38  DCM       CL1            -5.1926833133       15.2728188338       -7.1443789125  CLST      38              1.0000000000
       190        38  DCM       CL2            -4.3312853348       14.1393921976       -4.5884521533  CLST      38              1.0000000000
       191        39  DCM       C              15.1497461216       14.9017650362        7.5841916779  CLST      39              1.0000000000
       192        39  DCM       H1             15.3060263828       15.4203905118        8.5537092574  CLST      39              1.0000000000
       193        39  DCM       H2             14.0676252433       14.7735331720        7.3690031360  CLST      39              1.0000000000
       194        39  DCM       CL1            15.8902686864       15.8740494160        6.2798970171  CLST      39              1.0000000000
       195        39  DCM       CL2            15.9251464783       13.2923112007        7.6549356961  CLST      39              1.0000000000
       196        40  DCM       C             -16.0666954634        4.6745457714      -12.7647768989  CLST      40              1.0000000000
       197        40  DCM       H1            -15.7970642964        3.6252061393      -12.5209985928  CLST      40              1.0000000000
       198        40  DCM       H2            -17.1656943512        4.7886186595      -12.8791216720  CLST      40              1.0000000000
       199        40  DCM       CL1           -15.5045546739        5.7391465140      -11.4435495259  CLST      40              1.0000000000
       200        40  DCM       CL2           -15.2717754663        5.1347634365      -14.2984415043  CLST      40              1.0000000000
       201        41  DCM       C              -6.9590272392        0.6890189278       15.1871998267  CLST      41              1.0000000000
       202        41  DCM       H1             -7.5995056680        0.2324847361       15.9699111426  CLST      41              1.0000000000
       203        41  DCM       H2             -7.1539793130        1.7787148910       15.0996788062  CLST      41              1.0000000000
       204        41  DCM       CL1            -5.2421123423        0.4373318503       15.6149437766  CLST      41              1.0000000000
       205        41  DCM       CL2            -7.3134097945       -0.0986295177       13.6227936168  CLST      41              1.0000000000
       206        42  DCM       C              -5.5989497692      -18.0595794669        5.3477160835  CLST      42              1.0000000000
       207        42  DCM       H1             -4.9493272535      -18.4993261854        4.5623685001  CLST      42              1.0000000000
       208        42  DCM       H2             -5.6867752621      -18.7414381833        6.2205021358  CLST      42              1.0000000000
       209        42  DCM       CL1            -4.8916954390      -16.5098231985        5.8872132438  CLST      42              1.0000000000
       210        42  DCM       CL2            -7.2229255054      -17.7726365024        4.6584223588  CLST      42              1.0000000000
       211        43  DCM       C               6.0697828313      -11.5493982192      -12.9836058402  CLST      43              1.0000000000
       212        43  DCM       H1              5.8750122885      -12.5263228722      -13.4747282930  CLST      43              1.0000000000
       213        43  DCM       H2              7.1409282312      -11.2693454066      -13.0634123922  CLST      43              1.0000000000
       214        43  DCM       CL1             5.0811981581      -10.2891042370      -13.7768401441  CLST      43              1.0000000000
       215        43  DCM       CL2             5.6278720956      -11.6689809568      -11.2558151641  CLST      43              1.0000000000
       216        44  DCM       C             -14.9540903526        8.8868404648        4.3605794941  CLST      44              1.0000000000
       217        44  DCM       H1            -14.5145083431        7.8675683448        4.3241685116  CLST      44              1.0000000000
       218        44  DCM       H2            -15.2357503751        9.1658564240        5.3978996909  CLST      44              1.0000000000
       219        44  DCM       CL1           -13.7510042458       10.0591416620        3.7493950961  CLST      44              1.0000000000
       220        44  DCM       CL2           -16.4158029067        8.9237412512        3.3329952453  CLST      44              1.0000000000
       221        45  DCM       C              18.5424478869        3.8003081319       10.8942020420  CLST      45              1.0000000000
       222        45  DCM       H1             19.6144500641        4.0834598083       10.8567835098  CLST      45              1.0000000000
       223        45  DCM       H2             18.4148057239        2.7079231819       10.7441706823  CLST      45              1.0000000000
       224        45  DCM       CL1            17.8828129182        4.2502491166       12.4929152066  CLST      45              1.0000000000
       225        45  DCM       CL2            17.6654107447        4.6725012948        9.6033091851  CLST      45              1.0000000000
       226        46  DCM       C              -7.1736683276       11.7054322556       -5.2131100076  CLST      46              1.0000000000
       227        46  DCM       H1             -7.5644091704       10.6661438908       -5.2015340728  CLST      46              1.0000000000
       228        46  DCM       H2             -6.0633397631       11.7119578420       -5.2026177241  CLST      46              1.0000000000
       229        46  DCM       CL1            -7.7495787311       12.5244008166       -6.6937807725  CLST      46              1.0000000000
       230        46  DCM       CL2            -7.7742802182       12.5724725926       -3.7694754307  CLST      46              1.0000000000
       231        47  DCM       C              -3.8245701113       -3.8336287179      -15.1702076389  CLST      47              1.0000000000
       232        47  DCM       H1             -4.6188162073       -3.0591286100      -15.2199728094  CLST      47              1.0000000000
       233        47  DCM       H2             -3.7407019086       -4.2531621596      -14.1465941240  CLST      47              1.0000000000
       234        47  DCM       CL1            -4.2234301407       -5.1553571801      -16.3055208355  CLST      47              1.0000000000
       235        47  DCM       CL2            -2.2593345729       -3.0958166313      -15.6177014089  CLST      47              1.0000000000
       236        48  DCM       C              -2.5971236407       12.5573230273       -7.4501208501  CLST      48              1.0000000000
       237        48  DCM       H1             -2.7605300131       13.5606112781       -7.8973731508  CLST      48              1.0000000000
       238        48  DCM       H2             -2.2832203486       12.6399871827       -6.3881498911  CLST      48              1.0000000000
       239        48  DCM       CL1            -4.1222325614       11.6279194409       -7.5345328738  CLST      48              1.0000000000
       240        48  DCM       CL2            -1.3189634162       11.7116656520       -8.3703920467  CLST      48              1.0000000000
       241        49  DCM       C               0.4885781862        0.1821366983      -10.5712673839  CLST      49              1.0000000000
       242        49  DCM       H1              0.2840909216       -0.9086461136      -10.6224432922  CLST      49              1.0000000000
       243        49  DCM       H2              1.4057244765        0.4443562579      -11.1394091464  CLST      49              1.0000000000
       244        49  DCM       CL1            -0.8989945382        1.0693336758      -11.2669574901  CLST      49              1.0000000000
       245        49  DCM       CL2             0.7117759533        0.6519702987       -8.8607736155  CLST      49              1.0000000000
       246        50  DCM       C              -4.6406176364        1.3697894424       11.7339026754  CLST      50              1.0000000000
       247        50  DCM       H1             -5.7177466441        1.4118601715       11.4668762281  CLST      50              1.0000000000
       248        50  DCM       H2             -4.4994883150        1.4471967365       12.8325555640  CLST      50              1.0000000000
       249        50  DCM       CL1            -3.9630114587       -0.1848827641       11.1692773837  CLST      50              1.0000000000
       250        50  DCM       CL2            -3.7922881685        2.7289208319       10.9413485799  CLST      50              1.0000000000
       251        51  DCM       C              -4.4303996493       -7.2872006456      -13.1347196319  CLST      51              1.0000000000
       252        51  DCM       H1             -4.5929495052       -8.2278983814      -12.5673652263  CLST      51              1.0000000000
       253        51  DCM       H2             -4.8543146591       -7.3589175974      -14.1588635666  CLST      51              1.0000000000
       254        51  DCM       CL1            -5.2258715748       -5.9405632920      -12.2685508315  CLST      51              1.0000000000
       255        51  DCM       CL2            -2.6737407952       -6.9784002871      -13.2546932714  CLST      51              1.0000000000
       256        52  DCM       C             -16.1673702796       16.3962744650        8.7100604990  CLST      52              1.0000000000
       257        52  DCM       H1            -17.1976092679       16.7754648777        8.8782477445  CLST      52              1.0000000000
       258        52  DCM       H2            -15.4483107563       16.8632276258        9.4159693500  CLST      52              1.0000000000
       259        52  DCM       CL1           -16.1547510519       14.6263269103        8.9569795857  CLST      52              1.0000000000
       260        52  DCM       CL2           -15.6717237214       16.7797208116        7.0355659725  CLST      52              1.0000000000
       261        53  DCM       C              12.1276044414       -2.9728913153      -20.0033402046  CLST      53              1.0000000000
       262        53  DCM       H1             11.5937447959       -2.3261400013      -19.2756330181  CLST      53              1.0000000000
       263        53  DCM       H2             12.8490284901       -2.3825373334      -20.6070346138  CLST      53              1.0000000000
       264        53  DCM       CL1            13.0177501755       -4.2422955649      -19.1126837472  CLST      53              1.0000000000
       265        53  DCM       CL2            10.9301791084       -3.7257023053      -21.0962126301  CLST      53              1.0000000000
       266        54  DCM       C              12.3176052527        0.0509509819        2.6260007962  CLST      54              1.0000000000
       267        54  DCM       H1             11.4970342156       -0.6297152821        2.3145115217  CLST      54              1.0000000000
       268        54  DCM       H2             13.2878309502       -0.4859710906        2.6665294950  CLST      54              1.0000000000
       269        54  DCM       CL1            12.4469386934        1.3883493112        1.4473074987  CLST      54              1.0000000000
       270        54  DCM       CL2            11.9554667119        0.7050558046        4.2490736298  CLST      54              1.0000000000
       271        55  DCM       C              -4.3544127816       -4.1093956354       -8.8953112884  CLST      55              1.0000000000
       272        55  DCM       H1             -4.9639679319       -4.6094610929       -9.6762863479  CLST      55              1.0000000000
       273        55  DCM       H2             -3.6054970884       -3.4289393767       -9.3502947875  CLST      55              1.0000000000
       274        55  DCM       CL1            -5.4334006060       -3.1566335235       -7.8363895598  CLST      55              1.0000000000
       275        55  DCM       CL2            -3.4987402258       -5.3509526774       -7.9365771383  CLST      55              1.0000000000
       276        56  DCM       C              11.6252174478       -3.8895190292      -15.8303667733  CLST      56              1.0000000000
       277        56  DCM       H1             11.2988876004       -4.8371971512      -16.3090170063  CLST      56              1.0000000000
       278        56  DCM       H2             12.6848405510       -3.6638963709      -16.0751806097  CLST      56              1.0000000000
       279        56  DCM       CL1            10.5947936240       -2.5548412562      -16.4229751179  CLST      56              1.0000000000
       280        56  DCM       CL2            11.4571942005       -4.0429311445      -14.0575976333  CLST      56              1.0000000000
       281        57  DCM       C             -18.1003768420       12.2563372319        2.2224204127  CLST      57              1.0000000000
       282        57  DCM       H1            -18.0597147259       11.2248865424        1.8126301277  CLST      57              1.0000000000
       283        57  DCM       H2            -19.1254482732       12.5109687335        2.5647250246  CLST      57              1.0000000000
       284        57  DCM       CL1           -16.9792148671       12.3738184381        3.6079652616  CLST      57              1.0000000000
       285        57  DCM       CL2           -17.6080879651       13.4093905224        0.9484413485  CLST      57              1.0000000000
       286        58  DCM       C              12.9080098062        1.2337277365        7.9290108107  CLST      58              1.0000000000
       287        58  DCM       H1             13.2543314036        1.6725595328        6.9702740872  CLST      58              1.0000000000
       288        58  DCM       H2             13.1603268949        1.8932411908        8.7856432881  CLST      58              1.0000000000
       289        58  DCM       CL1            11.1340784160        1.0221723313        7.8628379282  CLST      58              1.0000000000
       290        58  DCM       CL2            13.6973661390       -0.3530843589        8.1620636171  CLST      58              1.0000000000
       291        59  DCM       C              15.1437454800       -4.8629133602       -4.5012556749  CLST      59              1.0000000000
       292        59  DCM       H1             16.0188991075       -4.9931716343       -5.1726327524  CLST      59              1.0000000000
       293        59  DCM       H2             14.4000401986       -4.1661857039       -4.9428337924  CLST      59              1.0000000000
       294        59  DCM       CL1            14.3675663358       -6.4525343353       -4.2469910420  CLST      59              1.0000000000
       295        59  DCM       CL2            15.7047555944       -4.2031832176       -2.9369651250  CLST      59              1.0000000000
       296        60  DCM       C              -7.9030516324      -16.5939967356        8.2680472660  CLST      60              1.0000000000
       297        60  DCM       H1             -8.8626151517      -16.1874746101        8.6516932112  CLST      60              1.0000000000
       298        60  DCM       H2             -7.7052535397      -16.2417491036        7.2336602533  CLST      60              1.0000000000
       299        60  DCM       CL1            -6.5739673340      -16.0469364644        9.3305092832  CLST      60              1.0000000000
       300        60  DCM       CL2            -7.9857970687      -18.3798328677        8.2710103439  CLST      60              1.0000000000
       301        61  DCM       C             -11.2342091858       11.7846037348       -5.0171915035  CLST      61              1.0000000000
       302        61  DCM       H1            -12.1894931326       11.9087205089       -5.5687430590  CLST      61              1.0000000000
       303        61  DCM       H2            -10.4775910978       12.5231149279       -5.3589207302  CLST      61              1.0000000000
       304        61  DCM       CL1           -11.5326599912       12.0278136025       -3.2716080186  CLST      61              1.0000000000
       305        61  DCM       CL2           -10.6069775162       10.1344653631       -5.3008300453  CLST      61              1.0000000000
       306        62  DCM       C              -7.9941205178      -20.4620780035        2.1911065660  CLST      62              1.0000000000
       307        62  DCM       H1             -7.6995571778      -20.2421913000        3.2376444884  CLST      62              1.0000000000
       308        62  DCM       H2             -8.9331938717      -19.9340373731        1.9246878162  CLST      62              1.0000000000
       309        62  DCM       CL1            -6.6839666995      -19.9244557725        1.1000006619  CLST      62              1.0000000000
       310        62  DCM       CL2            -8.2433613197      -22.2235724107        2.0215202625  CLST      62              1.0000000000
       311        63  DCM       C             -12.8841879609       -7.3023064686        0.1180653135  CLST      63              1.0000000000
       312        63  DCM       H1            -11.9050043775       -6.7782082191        0.1198501919  CLST      63              1.0000000000
       313        63  DCM       H2            -12.7753984302       -8.3542461311       -0.2214610798  CLST      63              1.0000000000
       314        63  DCM       CL1           -13.5489902720       -7.2938678543        1.7774397604  CLST      63              1.0000000000
       315        63  DCM       CL2           -13.9997703945       -6.4476577083       -0.9871212283  CLST      63              1.0000000000
       316        64  DCM       C             -19.0510130187       -1.6465087546      -11.5702185365  CLST      64              1.0000000000
       317        64  DCM       H1            -19.0520915758       -1.1726239711      -10.5659469980  CLST      64              1.0000000000
       318        64  DCM       H2            -18.9337699678       -0.8867080196      -12.3707687719  CLST      64              1.0000000000
       319        64  DCM       CL1           -17.6927613123       -2.8046019200      -11.6676266894  CLST      64              1.0000000000
       320        64  DCM       CL2           -20.5994694485       -2.5065106183      -11.8118797314  CLST      64              1.0000000000
       321        65  DCM       C               6.2534179203       -7.8986927293      -11.3287733686  CLST      65              1.0000000000
       322        65  DCM       H1              5.4949335160       -8.6432766989      -11.0065181928  CLST      65              1.0000000000
       323        65  DCM       H2              6.0478810073       -7.5435042704      -12.3607424966  CLST      65              1.0000000000
       324        65  DCM       CL1             6.2107357481       -6.5037542901      -10.2117969658  CLST      65              1.0000000000
       325        65  DCM       CL2             7.8705372259       -8.6594831501      -11.2868336510  CLST      65              1.0000000000
       326        66  DCM       C               6.8199815514       -9.3824297913       -7.6233733282  CLST      66              1.0000000000
       327        66  DCM       H1              6.8450462713       -9.3025766057       -6.5162237184  CLST      66              1.0000000000
       328        66  DCM       H2              7.2433471894       -8.4732862569       -8.1003214420  CLST      66              1.0000000000
       329        66  DCM       CL1             7.7822789320      -10.8023310556       -8.1251103116  CLST      66              1.0000000000
       330        66  DCM       CL2             5.1242926046       -9.5825249808       -8.1528697385  CLST      66              1.0000000000
       331        67  DCM       C             -18.9272467681       -2.2536079028      -15.3437353341  CLST      67              1.0000000000
       332        67  DCM       H1            -19.0291054451       -2.7471690650      -16.3333737368  CLST      67              1.0000000000
       333        67  DCM       H2            -19.1132598068       -2.9730114979      -14.5180548743  CLST      67              1.0000000000
       334        67  DCM       CL1           -17.2694654952       -1.6030451488      -15.1859155911  CLST      67              1.0000000000
       335        67  DCM       CL2           -20.1139184495       -0.9207583497      -15.2337359336  CLST      67              1.0000000000
       336        68  DCM       C              16.2100019734       12.9584411788       -0.8808377862  CLST      68              1.0000000000
       337        68  DCM       H1             16.1819135347       12.9093418797       -1.9899397312  CLST      68              1.0000000000
       338        68  DCM       H2             17.0737835030       13.5612042466       -0.5297044432  CLST      68              1.0000000000
       339        68  DCM       CL1            14.6991967896       13.7123441392       -0.2953144810  CLST      68              1.0000000000
       340        68  DCM       CL2            16.3509039153       11.2995961640       -0.2289955606  CLST      68              1.0000000000
       341        69  DCM       C               2.9492656927      -18.6715767670        3.6992597157  CLST      69              1.0000000000
       342        69  DCM       H1              2.7610478525      -19.7248178513        3.4034581191  CLST      69              1.0000000000
       343        69  DCM       H2              3.5285782792      -18.6210067243        4.6452203200  CLST      69              1.0000000000
       344        69  DCM       CL1             3.8747438722      -17.8604227173        2.4031303915  CLST      69              1.0000000000
       345        69  DCM       CL2             1.3816156912      -17.8454014687        3.9322090647  CLST      69              1.0000000000
       346        70  DCM       C               3.7086211560      -18.3617345266       -1.4098360940  CLST      70              1.0000000000
       347        70  DCM       H1              4.1981516636      -17.4952311905       -1.9033926383  CLST      70              1.0000000000
       348        70  DCM       H2              4.2659562098      -18.6712891996       -0.5011263420  CLST      70              1.0000000000
       349        70  DCM       CL1             2.0459459419      -17.9001640534       -0.9426137249  CLST      70              1.0000000000
       350        70  DCM       CL2             3.6580214578      -19.7331031006       -2.5560514423  CLST      70              1.0000000000
       351        71  DCM       C             -15.5260083591        6.1842713615        0.4703031023  CLST      71              1.0000000000
       352        71  DCM       H1            -15.2191449410        5.2704063685       -0.0810286993  CLST      71              1.0000000000
       353        71  DCM       H2            -15.9239870439        6.9548585684       -0.2226822233  CLST      71              1.0000000000
       354        71  DCM       CL1           -16.8006231398        5.7565277111        1.6475796370  CLST      71              1.0000000000
       355        71  DCM       CL2           -14.1053510481        6.8511831375        1.3261325247  CLST      71              1.0000000000
       356        72  DCM       C             -13.5849005630       -1.3513550438        4.7612422894  CLST      72              1.0000000000
       357        72  DCM       H1            -13.4163253576       -0.7059679004        5.6493553003  CLST      72              1.0000000000
       358        72  DCM       H2            -14.6613412126       -1.3810734303        4.4905384941  CLST      72              1.0000000000
       359        72  DCM       CL1           -12.6548622003       -0.6942517832        3.3834913703  CLST      72              1.0000000000
       360        72  DCM       CL2           -13.0277651472       -3.0087938894        5.1323861826  CLST      72              1.0000000000
       361        73  DCM       C              17.3892769100       -0.6180202307        8.3195462664  CLST      73              1.0000000000
       362        73  DCM       H1             17.3132665676       -0.9369677432        7.2581905783  CLST      73              1.0000000000
       363        73  DCM       H2             16.5718688837       -1.0566794004        8.9293167862  CLST      73              1.0000000000
       364        73  DCM       CL1            18.9584021776       -1.1581437248        8.9820637774  CLST      73              1.0000000000
       365        73  DCM       CL2            17.2813395020        1.1632159447        8.3998925818  CLST      73              1.0000000000
       366        74  DCM       C             -14.8005503423       10.9412291962        0.4945673246  CLST      74              1.0000000000
       367        74  DCM       H1            -15.1659792581       11.4336995142        1.4198931292  CLST      74              1.0000000000
       368        74  DCM       H2            -13.9457095647       10.2673936325        0.7145381477  CLST      74              1.0000000000
       369        74  DCM       CL1           -16.1282758738        9.9811607129       -0.2196540628  CLST      74              1.0000000000
       370        74  DCM       CL2           -14.2721313923       12.1996647432       -0.6588920275  CLST      74              1.0000000000
       371        75  DCM       C              11.2418147209       -0.7919995742       11.2386685585  CLST      75              1.0000000000
       372        75  DCM       H1             10.4668357993       -1.0928194126       11.9752648531  CLST      75              1.0000000000
       373        75  DCM       H2             10.8622156743       -0.8810218571       10.1995104295  CLST      75              1.0000000000
       374        75  DCM       CL1            11.7043819396        0.9072766047       11.5462022175  CLST      75              1.0000000000
       375        75  DCM       CL2            12.6685597158       -1.8527402463       11.4293584239  CLST      75              1.0000000000
       376        76  DCM       C             -14.3712344475       13.2540689317        5.8207171156  CLST      76              1.0000000000
       377        76  DCM       H1            -13.9515852464       12.8466896929        4.8771229582  CLST      76              1.0000000000
       378        76  DCM       H2            -15.2038260794       13.9585823721        5.6154120105  CLST      76              1.0000000000
       379        76  DCM       CL1           -14.9886577522       11.9012099071        6.8120813879  CLST      76              1.0000000000
       380        76  DCM       CL2           -13.0818699692       14.1217197041        6.7026061382  CLST      76              1.0000000000
       381        77  DCM       C               9.7042130933      -11.7844423965      -10.9555463759  CLST      77              1.0000000000
       382        77  DCM       H1              9.9589363386      -10.7804560697      -10.5552064684  CLST      77              1.0000000000
       383        77  DCM       H2              8.6350295565      -12.0249218443      -10.7759493167  CLST      77              1.0000000000
       384        77  DCM       CL1            10.0180434995      -11.8076645397      -12.7149411265  CLST      77              1.0000000000
       385        77  DCM       CL2            10.7198827285      -13.0081964236      -10.1401358935  CLST      77              1.0000000000
       386        78  DCM       C              -3.4443528047       -5.8478730413       -0.6080980526  CLST      78              1.0000000000
       387        78  DCM       H1             -3.4250661723       -4.9556706078       -1.2680531478  CLST      78              1.0000000000
       388        78  DCM       H2             -4.4828456528       -6.2143227441       -0.4641406039  CLST      78              1.0000000000
       389        78  DCM       CL1            -2.4702551322       -7.1431206950       -1.3609502579  CLST      78              1.0000000000
       390        78  DCM       CL2            -2.7541624724       -5.4088073370        0.9811467155  CLST      78              1.0000000000
       391        79  DCM       C              -5.0929618978       -4.4968016563       -4.5368719236  CLST      79              1.0000000000
       392        79  DCM       H1             -5.5530137043       -3.4911630984       -4.6394311636  CLST      79              1.0000000000
       393        79  DCM       H2             -5.2399397173       -5.0996401352       -5.4577997020  CLST      79              1.0000000000
       394        79  DCM       CL1            -3.3397293013       -4.3055934436       -4.2422995603  CLST      79              1.0000000000
       395        79  DCM       CL2            -5.8557871879       -5.3481422403       -3.1628253787  CLST      79              1.0000000000
       396        80  DCM       C             -12.8692071648       -3.1115158843       -0.2557081686  CLST      80              1.0000000000
       397        80  DCM       H1            -12.3566297247       -3.6575582412       -1.0756220767  CLST      80              1.0000000000
       398        80  DCM       H2            -13.9708079293       -3.2359131498       -0.3231480628  CLST      80              1.0000000000
       399        80  DCM       CL1           -12.4675151923       -1.3737091647       -0.3742961953  CLST      80              1.0000000000
       400        80  DCM       CL2           -12.3054815268       -3.7572140571        1.3124299687  CLST      80              1.0000000000
       401        81  DCM       C              -4.6179742632      -19.3408678059        9.7793596141  CLST      81              1.0000000000
       402        81  DCM       H1             -4.0420394815      -19.7535957372       10.6343509656  CLST      81              1.0000000000
       403        81  DCM       H2             -5.5253499991      -18.8049871317       10.1296661035  CLST      81              1.0000000000
       404        81  DCM       CL1            -3.5802385011      -18.1994337372        8.8770415386  CLST      81              1.0000000000
       405        81  DCM       CL2            -5.1134571590      -20.6841474570        8.7099894667  CLST      81              1.0000000000
       406        82  DCM       C               9.1194123558       18.2786600464       -6.0491065786  CLST      82              1.0000000000
       407        82  DCM       H1             10.0854959378       18.3652103119       -6.5900224155  CLST      82              1.0000000000
       408        82  DCM       H2              8.4497001844       17.5437036796       -6.5437589842  CLST      82              1.0000000000
       409        82  DCM       CL1             9.4368337959       17.7398087633       -4.3739428651  CLST      82              1.0000000000
       410        82  DCM       CL2             8.3176334060       19.8763452689       -6.0310076126  CLST      82              1.0000000000
       411        83  DCM       C              -1.8626363428      -19.0457585843        5.6070417284  CLST      83              1.0000000000
       412        83  DCM       H1             -2.4880201586      -18.2289292907        6.0236043519  CLST      83              1.0000000000
       413        83  DCM       H2             -0.7870913833      -18.8657701678        5.8154565507  CLST      83              1.0000000000
       414        83  DCM       CL1            -2.3505132463      -20.5936210344        6.3555805064  CLST      83              1.0000000000
       415        83  DCM       CL2            -2.1093925308      -19.1260757297        3.8385168945  CLST      83              1.0000000000
       416        84  DCM       C              13.7024118846       -6.8050704864        0.8415578186  CLST      84              1.0000000000
       417        84  DCM       H1             13.1448521259       -5.8927125216        1.1413888754  CLST      84              1.0000000000
       418        84  DCM       H2             13.4363900384       -7.6662027237        1.4902806332  CLST      84              1.0000000000
       419        84  DCM       CL1            13.2930611790       -7.2052518852       -0.8506831913  CLST      84              1.0000000000
       420        84  DCM       CL2            15.4566630472       -6.4914364879        0.9810458592  CLST      84              1.0000000000
       421        85  DCM       C              14.9982317533       -2.8268798401        0.5612854976  CLST      85              1.0000000000
       422        85  DCM       H1             16.0361485813       -2.5178257971        0.8080104132  CLST      85              1.0000000000
       423        85  DCM       H2             14.9942247618       -3.7322049747       -0.0809585510  CLST      85              1.0000000000
       424        85  DCM       CL1            14.1215581400       -3.1870839019        2.0769060615  CLST      85              1.0000000000
       425        85  DCM       CL2            14.1848957150       -1.4937743963       -0.3083835244  CLST      85              1.0000000000
       426        86  DCM       C              -8.9327236148        5.8220017158      -21.1561206494  CLST      86              1.0000000000
       427        86  DCM       H1             -9.1397472444        6.7115378411      -21.7879631240  CLST      86              1.0000000000
       428        86  DCM       H2             -8.3126744658        6.0918014248      -20.2751190942  CLST      86              1.0000000000
       429        86  DCM       CL1           -10.4844794757        5.1396729546      -20.5873336139  CLST      86              1.0000000000
       430        86  DCM       CL2            -8.0570441177        4.6069201696      -22.1327325216  CLST      86              1.0000000000
       431        87  DCM       C              -5.9374370346      -22.3429805141        5.3532177542  CLST      87              1.0000000000
       432        87  DCM       H1             -5.2643864057      -22.5144448104        6.2199563077  CLST      87              1.0000000000
       433        87  DCM       H2             -6.3083550678      -23.3032959225        4.9366188391  CLST      87              1.0000000000
       434        87  DCM       CL1            -7.3351409097      -21.3638475341        5.8862832131  CLST      87              1.0000000000
       435        87  DCM       CL2            -5.0330228068      -21.4718806041        4.0817832632  CLST      87              1.0000000000
       436        88  DCM       C             -15.1775712251        3.0202946553        3.2917194985  CLST      88              1.0000000000
       437        88  DCM       H1            -16.1474827630        2.7573628033        2.8202697930  CLST      88              1.0000000000
       438        88  DCM       H2            -15.1600429193        4.0869839637        3.5998175198  CLST      88              1.0000000000
       439        88  DCM       CL1           -14.9362433138        1.9935184540        4.7346275109  CLST      88              1.0000000000
       440        88  DCM       CL2           -13.8636944167        2.7349933600        2.1138955139  CLST      88              1.0000000000
       441        89  DCM       C               7.9200743282      -15.4434936779      -10.5183497740  CLST      89              1.0000000000
       442        89  DCM       H1              9.0058377072      -15.5763785672      -10.3265951798  CLST      89              1.0000000000
       443        89  DCM       H2              7.3838324210      -16.4148085328      -10.4749099852  CLST      89              1.0000000000
       444        89  DCM       CL1             7.2413408603      -14.3499150460       -9.2775937584  CLST      89              1.0000000000
       445        89  DCM       CL2             7.6999664406      -14.7300993135      -12.1428799551  CLST      89              1.0000000000
       446        90  DCM       C              -9.2467288066      -18.3379349934       -0.9088978949  CLST      90              1.0000000000
       447        90  DCM       H1             -8.2342629111      -18.2014026969       -1.3444422128  CLST      90              1.0000000000
       448        90  DCM       H2             -9.4141112291      -19.3955982905       -0.6137049427  CLST      90              1.0000000000
       449        90  DCM       CL1            -9.4021267282      -17.2974246185        0.5373756768  CLST      90              1.0000000000
       450        90  DCM       CL2           -10.4722950801      -17.8741974621       -2.1249135323  CLST      90              1.0000000000
       451        91  DCM       C              -6.7891449025       -3.1782183803       16.3110476506  CLST      91              1.0000000000
       452        91  DCM       H1             -6.3757987288       -3.7671860128       15.4650924619  CLST      91              1.0000000000
       453        91  DCM       H2             -6.2426675381       -2.2201817366       16.4352759441  CLST      91              1.0000000000
       454        91  DCM       CL1            -8.5119417022       -2.8266355699       15.9886600565  CLST      91              1.0000000000
       455        91  DCM       CL2            -6.6362041324       -4.1309437271       17.8159828666  CLST      91              1.0000000000
       456        92  DCM       C              15.7863097391        1.5127156627        3.5030341448  CLST      92              1.0000000000
       457        92  DCM       H1             14.8342500187        1.9884494756        3.1858046163  CLST      92              1.0000000000
       458        92  DCM       H2             16.6176103495        2.2484474999        3.5041291633  CLST      92              1.0000000000
       459        92  DCM       CL1            15.5860383027        0.8517836697        5.1512956171  CLST      92              1.0000000000
       460        92  DCM       CL2            16.1895178931        0.1927389655        2.3685790240  CLST      92              1.0000000000
