* PRE_MLPOT:MONOMER_REPACK
*  DATE:     6/28/26      2:38:53      CREATED BY USER: boittier
*
       460  EXT
         1         1  DCM       C               6.0415623668       -5.9557954108        1.3945851270  CLST      1               1.0000000000
         2         1  DCM       H1              6.9046735039       -6.1816020802        2.0560678164  CLST      1               1.0000000000
         3         1  DCM       H2              5.4968713598       -5.0528636412        1.7430838908  CLST      1               1.0000000000
         4         1  DCM       CL1             6.6391819732       -5.6696847831       -0.2663002830  CLST      1               1.0000000000
         5         1  DCM       CL2             4.9212832064       -7.3490872120        1.4044885652  CLST      1               1.0000000000
         6         2  DCM       C              -0.2543963133      -10.1392704772        0.8462377241  CLST      2               1.0000000000
         7         2  DCM       H1              0.2850825524      -11.0337601332        1.2232286231  CLST      2               1.0000000000
         8         2  DCM       H2              0.4420311521       -9.2868051218        0.6995226273  CLST      2               1.0000000000
         9         2  DCM       CL1            -1.0203857877      -10.5392652737       -0.7182438715  CLST      2               1.0000000000
        10         2  DCM       CL2            -1.5039486699       -9.6719553587        2.0341519368  CLST      2               1.0000000000
        11         3  DCM       C              -9.2152113396       10.8429748291        2.4101797153  CLST      3               1.0000000000
        12         3  DCM       H1             -9.6277781408       11.7575054793        2.8866325478  CLST      3               1.0000000000
        13         3  DCM       H2             -8.5840451703       11.0994207791        1.5327715267  CLST      3               1.0000000000
        14         3  DCM       CL1            -8.2190084688        9.9639100502        3.6062693588  CLST      3               1.0000000000
        15         3  DCM       CL2           -10.5684409558        9.8069221819        1.8700964849  CLST      3               1.0000000000
        16         4  DCM       C               8.4528579397       -2.7197641353      -11.5397999357  CLST      4               1.0000000000
        17         4  DCM       H1              8.1641566539       -1.6486191919      -11.4904189097  CLST      4               1.0000000000
        18         4  DCM       H2              9.1319250936       -2.9116821091      -12.3972069463  CLST      4               1.0000000000
        19         4  DCM       CL1             9.2889723104       -3.1670836582      -10.0240280083  CLST      4               1.0000000000
        20         4  DCM       CL2             6.9780088998       -3.7117131167      -11.7331985447  CLST      4               1.0000000000
        21         5  DCM       C              10.8247070661        6.9979844226        0.2781421721  CLST      5               1.0000000000
        22         5  DCM       H1             11.4068726270        7.5804681457        1.0226767343  CLST      5               1.0000000000
        23         5  DCM       H2              9.8879446965        6.6040649676        0.7258561073  CLST      5               1.0000000000
        24         5  DCM       CL1            10.4077361244        8.0645692726       -1.0938793560  CLST      5               1.0000000000
        25         5  DCM       CL2            11.8195369684        5.6276621913       -0.2977224960  CLST      5               1.0000000000
        26         6  DCM       C              -9.8683454817        4.8171740794       -6.6227238686  CLST      6               1.0000000000
        27         6  DCM       H1             -8.8419235118        4.4108154861       -6.5117979223  CLST      6               1.0000000000
        28         6  DCM       H2             -9.8465881664        5.8674389130       -6.9828891442  CLST      6               1.0000000000
        29         6  DCM       CL1           -10.7612694243        3.8139660646       -7.8016552744  CLST      6               1.0000000000
        30         6  DCM       CL2           -10.6829515918        4.7618813274       -5.0324095440  CLST      6               1.0000000000
        31         7  DCM       C               7.4519084559        9.5393734512       -3.7829002165  CLST      7               1.0000000000
        32         7  DCM       H1              6.7769820259        9.9438284254       -4.5663332639  CLST      7               1.0000000000
        33         7  DCM       H2              7.3999119632        8.4306975453       -3.7440615748  CLST      7               1.0000000000
        34         7  DCM       CL1             9.1311058064       10.0312400966       -4.1510916779  CLST      7               1.0000000000
        35         7  DCM       CL2             6.9597241873       10.1979146245       -2.1954455805  CLST      7               1.0000000000
        36         8  DCM       C             -11.1126632576       -2.2002256684        3.1183026989  CLST      8               1.0000000000
        37         8  DCM       H1            -11.7210954871       -2.4192242473        4.0213825794  CLST      8               1.0000000000
        38         8  DCM       H2            -10.6043391206       -3.1160405401        2.7502165635  CLST      8               1.0000000000
        39         8  DCM       CL1           -12.1818338035       -1.5729834038        1.8307916524  CLST      8               1.0000000000
        40         8  DCM       CL2            -9.8779936975       -0.9739227258        3.5291596867  CLST      8               1.0000000000
        41         9  DCM       C              -8.9070871923       -7.9231261960        8.6418663291  CLST      9               1.0000000000
        42         9  DCM       H1             -8.6207860099       -7.3451984552        9.5445397383  CLST      9               1.0000000000
        43         9  DCM       H2             -8.5469532869       -7.4242342590        7.7168936063  CLST      9               1.0000000000
        44         9  DCM       CL1            -8.1807260111       -9.5522634366        8.7477085540  CLST      9               1.0000000000
        45         9  DCM       CL2           -10.6887396624       -8.0533211665        8.5804089156  CLST      9               1.0000000000
        46        10  DCM       C              -9.0861813093        7.6565678376       -1.4686619010  CLST      10              1.0000000000
        47        10  DCM       H1             -9.5883862578        8.4113794291       -2.1080222026  CLST      10              1.0000000000
        48        10  DCM       H2             -9.6962678469        6.7327423873       -1.3853344788  CLST      10              1.0000000000
        49        10  DCM       CL1            -7.5019435383        7.2442791040       -2.1870202698  CLST      10              1.0000000000
        50        10  DCM       CL2            -8.8542926448        8.3512172926        0.1614483735  CLST      10              1.0000000000
        51        11  DCM       C               8.5811877726        4.6483137129        5.9670847627  CLST      11              1.0000000000
        52        11  DCM       H1              7.8053060234        3.9588567930        6.3619729099  CLST      11              1.0000000000
        53        11  DCM       H2              8.1365303138        5.3917093739        5.2726138340  CLST      11              1.0000000000
        54        11  DCM       CL1             9.8143766536        3.6965201756        5.0913690795  CLST      11              1.0000000000
        55        11  DCM       CL2             9.3413485113        5.5140060993        7.3339972554  CLST      11              1.0000000000
        56        12  DCM       C              -1.7664619177        3.7078825609        3.8558335937  CLST      12              1.0000000000
        57        12  DCM       H1             -2.1659407297        4.7272168178        4.0417226396  CLST      12              1.0000000000
        58        12  DCM       H2             -1.9442910356        3.3943478017        2.8053111151  CLST      12              1.0000000000
        59        12  DCM       CL1            -0.0070087524        3.7057112729        4.1727358543  CLST      12              1.0000000000
        60        12  DCM       CL2            -2.5795782322        2.5557052705        4.9544351496  CLST      12              1.0000000000
        61        13  DCM       C               1.7766928359       -2.7876681196       -1.8783255984  CLST      13              1.0000000000
        62        13  DCM       H1              1.6750546585       -3.6068844976       -2.6210483772  CLST      13              1.0000000000
        63        13  DCM       H2              2.8378804959       -2.6462172724       -1.5828546579  CLST      13              1.0000000000
        64        13  DCM       CL1             1.1637851568       -1.2686311074       -2.5965318692  CLST      13              1.0000000000
        65        13  DCM       CL2             0.8190082718       -3.2000269403       -0.4262690424  CLST      13              1.0000000000
        66        14  DCM       C              -4.2527138250       -5.1304179230        4.3109351499  CLST      14              1.0000000000
        67        14  DCM       H1             -4.1840113781       -4.0947104962        4.7061124358  CLST      14              1.0000000000
        68        14  DCM       H2             -4.1483424842       -5.1430582666        3.2053763326  CLST      14              1.0000000000
        69        14  DCM       CL1            -2.9481157510       -6.1167928812        5.0325502962  CLST      14              1.0000000000
        70        14  DCM       CL2            -5.8417718186       -5.8172473435        4.7536623392  CLST      14              1.0000000000
        71        15  DCM       C               1.7308276040       -9.8088595149       11.1100522889  CLST      15              1.0000000000
        72        15  DCM       H1              1.4062376118       -9.8655730502       12.1704400675  CLST      15              1.0000000000
        73        15  DCM       H2              0.8572393942       -9.7295191847       10.4293694346  CLST      15              1.0000000000
        74        15  DCM       CL1             2.7674324252       -8.3681130712       10.8961583877  CLST      15              1.0000000000
        75        15  DCM       CL2             2.6522862543      -11.2859876815       10.7052105666  CLST      15              1.0000000000
        76        16  DCM       C               2.8559651918        5.9249434764        8.0187675181  CLST      16              1.0000000000
        77        16  DCM       H1              3.5286124855        6.5013263298        8.6886960609  CLST      16              1.0000000000
        78        16  DCM       H2              2.1865891759        5.2565289290        8.6013143069  CLST      16              1.0000000000
        79        16  DCM       CL1             1.8596227059        7.0694909258        7.0734274317  CLST      16              1.0000000000
        80        16  DCM       CL2             3.8501648621        4.9325586225        6.9133241158  CLST      16              1.0000000000
        81        17  DCM       C               3.2371261636        1.1054141099       -0.6913648872  CLST      17              1.0000000000
        82        17  DCM       H1              3.7573796659        2.0810245745       -0.5861523764  CLST      17              1.0000000000
        83        17  DCM       H2              2.1417061250        1.2210686447       -0.5516999387  CLST      17              1.0000000000
        84        17  DCM       CL1             3.5467997165        0.4524154000       -2.3258760754  CLST      17              1.0000000000
        85        17  DCM       CL2             3.8670538490       -0.0262429893        0.5410907025  CLST      17              1.0000000000
        86        18  DCM       C              -5.0204506279      -10.1233658654       -2.7669043348  CLST      18              1.0000000000
        87        18  DCM       H1             -5.0814108008       -9.7809679979       -3.8216877626  CLST      18              1.0000000000
        88        18  DCM       H2             -5.3342924231      -11.1841387572       -2.6706475987  CLST      18              1.0000000000
        89        18  DCM       CL1            -3.3319743118       -9.9643071999       -2.2011120791  CLST      18              1.0000000000
        90        18  DCM       CL2            -6.0967002248       -9.1062337701       -1.7656742882  CLST      18              1.0000000000
        91        19  DCM       C              -1.8281344157        3.2001231386        9.9363087104  CLST      19              1.0000000000
        92        19  DCM       H1             -1.0753145036        2.3977995907        9.7859548358  CLST      19              1.0000000000
        93        19  DCM       H2             -1.8408544285        3.5467789591       10.9912902761  CLST      19              1.0000000000
        94        19  DCM       CL1            -1.4216391880        4.5818660095        8.8777857370  CLST      19              1.0000000000
        95        19  DCM       CL2            -3.4453678788        2.5653535480        9.5151343961  CLST      19              1.0000000000
        96        20  DCM       C              -3.6382007834        7.6537638854        3.4901838119  CLST      20              1.0000000000
        97        20  DCM       H1             -3.6985711095        6.5975093895        3.8269385341  CLST      20              1.0000000000
        98        20  DCM       H2             -2.5930694374        8.0240050999        3.5283186496  CLST      20              1.0000000000
        99        20  DCM       CL1            -4.2294514149        7.7631986334        1.8074873007  CLST      20              1.0000000000
       100        20  DCM       CL2            -4.6531667714        8.6648691975        4.5582716516  CLST      20              1.0000000000
       101        21  DCM       C              -3.6708858789        9.4579738249       -5.0888625132  CLST      21              1.0000000000
       102        21  DCM       H1             -2.9809204158        9.0652906513       -4.3126351660  CLST      21              1.0000000000
       103        21  DCM       H2             -3.8305605546       10.5501724549       -4.9654090109  CLST      21              1.0000000000
       104        21  DCM       CL1            -2.9670288467        9.1512759579       -6.7030783893  CLST      21              1.0000000000
       105        21  DCM       CL2            -5.2446444664        8.6228290294       -4.9467470160  CLST      21              1.0000000000
       106        22  DCM       C               9.9931060174       -1.8752867498        3.8764043180  CLST      22              1.0000000000
       107        22  DCM       H1              9.0981821484       -2.3615038051        3.4354054840  CLST      22              1.0000000000
       108        22  DCM       H2             10.9229963038       -2.2312519566        3.3853986606  CLST      22              1.0000000000
       109        22  DCM       CL1             9.8616209632       -0.1060934247        3.6586663375  CLST      22              1.0000000000
       110        22  DCM       CL2            10.0673517870       -2.2661633863        5.6192362588  CLST      22              1.0000000000
       111        23  DCM       C               1.5576025041       -2.1648629686        9.8208534739  CLST      23              1.0000000000
       112        23  DCM       H1              1.5933508669       -1.1546124740       10.2814567168  CLST      23              1.0000000000
       113        23  DCM       H2              0.6627259678       -2.2794013587        9.1736895236  CLST      23              1.0000000000
       114        23  DCM       CL1             3.0260524454       -2.4045772771        8.8293738857  CLST      23              1.0000000000
       115        23  DCM       CL2             1.4959880296       -3.3920110724       11.1196448875  CLST      23              1.0000000000
       116        24  DCM       C               0.3790241405        0.3342257830       -8.7344244275  CLST      24              1.0000000000
       117        24  DCM       H1             -0.3898829160       -0.4576189910       -8.8575518516  CLST      24              1.0000000000
       118        24  DCM       H2              1.3969933665       -0.1058084259       -8.6721229893  CLST      24              1.0000000000
       119        24  DCM       CL1             0.3050936153        1.4367312562      -10.1388101644  CLST      24              1.0000000000
       120        24  DCM       CL2             0.0459621941        1.2459315660       -7.2333913765  CLST      24              1.0000000000
       121        25  DCM       C              -6.9112667847      -10.2620368117       -8.3039655833  CLST      25              1.0000000000
       122        25  DCM       H1             -6.6399014922      -11.3195081893       -8.1021872808  CLST      25              1.0000000000
       123        25  DCM       H2             -8.0010109426      -10.1590636361       -8.4897613641  CLST      25              1.0000000000
       124        25  DCM       CL1            -6.4719655384       -9.2682074297       -6.8851225081  CLST      25              1.0000000000
       125        25  DCM       CL2            -6.0181540485       -9.7003094494       -9.7472494063  CLST      25              1.0000000000
       126        26  DCM       C              -5.6622261206       -2.0746559215       -8.5161682415  CLST      26              1.0000000000
       127        26  DCM       H1             -5.1320683648       -2.0084148595       -7.5422484703  CLST      26              1.0000000000
       128        26  DCM       H2             -5.4276650842       -1.1999138780       -9.1589767635  CLST      26              1.0000000000
       129        26  DCM       CL1            -5.1511473264       -3.5669088605       -9.3587786530  CLST      26              1.0000000000
       130        26  DCM       CL2            -7.4245423884       -2.1180084582       -8.2181554033  CLST      26              1.0000000000
       131        27  DCM       C               8.3779870986      -10.3395984671        1.9279696745  CLST      27              1.0000000000
       132        27  DCM       H1              9.4638477168      -10.1920738179        1.7468548087  CLST      27              1.0000000000
       133        27  DCM       H2              7.9688344433      -11.1373972172        1.2728165305  CLST      27              1.0000000000
       134        27  DCM       CL1             8.1294552459      -10.8035755488        3.6367185034  CLST      27              1.0000000000
       135        27  DCM       CL2             7.5168574294       -8.8112135241        1.5854428837  CLST      27              1.0000000000
       136        28  DCM       C               4.7544239929        2.2792649285       -5.2086162264  CLST      28              1.0000000000
       137        28  DCM       H1              4.5679282145        1.1846348773       -5.1888930794  CLST      28              1.0000000000
       138        28  DCM       H2              3.8838427277        2.8220312151       -5.6345461583  CLST      28              1.0000000000
       139        28  DCM       CL1             5.0428171400        2.8524645954       -3.5406165640  CLST      28              1.0000000000
       140        28  DCM       CL2             6.1925874180        2.6063878187       -6.2179828876  CLST      28              1.0000000000
       141        29  DCM       C               4.8329001216        5.6148035066        1.6692618685  CLST      29              1.0000000000
       142        29  DCM       H1              5.8112842083        5.8843163488        2.1209899375  CLST      29              1.0000000000
       143        29  DCM       H2              3.9959414505        5.8604964860        2.3561395816  CLST      29              1.0000000000
       144        29  DCM       CL1             4.6242651453        6.5284304273        0.1469043179  CLST      29              1.0000000000
       145        29  DCM       CL2             4.8089653101        3.8599679176        1.3301721162  CLST      29              1.0000000000
       146        30  DCM       C              -3.4282014693        9.2516190116        7.7976529019  CLST      30              1.0000000000
       147        30  DCM       H1             -4.0464098358        9.4617599982        6.8993059735  CLST      30              1.0000000000
       148        30  DCM       H2             -3.4751740737       10.0921812893        8.5219752968  CLST      30              1.0000000000
       149        30  DCM       CL1            -4.0380408972        7.7685002345        8.5885032339  CLST      30              1.0000000000
       150        30  DCM       CL2            -1.7296960000        9.0150255781        7.2915963029  CLST      30              1.0000000000
       151        31  DCM       C               3.1952724938       -8.3071055165       -2.3898812827  CLST      31              1.0000000000
       152        31  DCM       H1              3.8081383333       -9.2295668478       -2.4724111191  CLST      31              1.0000000000
       153        31  DCM       H2              2.8561165062       -8.1443203931       -1.3447715797  CLST      31              1.0000000000
       154        31  DCM       CL1             4.1797052187       -6.9066503565       -2.9060455670  CLST      31              1.0000000000
       155        31  DCM       CL2             1.7629357839       -8.4637351964       -3.4486404660  CLST      31              1.0000000000
       156        32  DCM       C               0.8663643135        8.5618140620        0.2024176838  CLST      32              1.0000000000
       157        32  DCM       H1              1.4437679341        8.6189974479       -0.7436675165  CLST      32              1.0000000000
       158        32  DCM       H2              0.2471647405        9.4719760935        0.3471725098  CLST      32              1.0000000000
       159        32  DCM       CL1            -0.2037363476        7.1315589763        0.1443597784  CLST      32              1.0000000000
       160        32  DCM       CL2             2.0063474585        8.4096279922        1.5705978148  CLST      32              1.0000000000
       161        33  DCM       C               9.3181512695       -3.6075181772       -1.7281803205  CLST      33              1.0000000000
       162        33  DCM       H1              9.0213231238       -4.3282475857       -2.5178351855  CLST      33              1.0000000000
       163        33  DCM       H2              8.7080611220       -3.7475029720       -0.8106130952  CLST      33              1.0000000000
       164        33  DCM       CL1            11.0415206086       -3.8632178427       -1.3286405836  CLST      33              1.0000000000
       165        33  DCM       CL2             9.0726281475       -1.9463459481       -2.3404223244  CLST      33              1.0000000000
       166        34  DCM       C              -6.6344767445        2.7817064568        3.1454775429  CLST      34              1.0000000000
       167        34  DCM       H1             -7.3673666989        3.3063567623        3.7942922682  CLST      34              1.0000000000
       168        34  DCM       H2             -5.6998323296        2.5530963602        3.7000358320  CLST      34              1.0000000000
       169        34  DCM       CL1            -7.3584182354        1.2509071744        2.5715233199  CLST      34              1.0000000000
       170        34  DCM       CL2            -6.2408274939        3.8278035261        1.7498744000  CLST      34              1.0000000000
       171        35  DCM       C              -1.7870194632       -3.0199026217       -6.7481906994  CLST      35              1.0000000000
       172        35  DCM       H1             -1.2500720912       -2.0689197180       -6.9498351097  CLST      35              1.0000000000
       173        35  DCM       H2             -1.6351302517       -3.3511055805       -5.6990981547  CLST      35              1.0000000000
       174        35  DCM       CL1            -3.5350863912       -2.7720360578       -7.0319988284  CLST      35              1.0000000000
       175        35  DCM       CL2            -1.1657035083       -4.2824221942       -7.8513566042  CLST      35              1.0000000000
       176        36  DCM       C               6.0040797320        9.8504235945        4.9714160171  CLST      36              1.0000000000
       177        36  DCM       H1              7.0861091106       10.0955710252        4.9800660448  CLST      36              1.0000000000
       178        36  DCM       H2              5.6025431140        9.8573840146        3.9360680042  CLST      36              1.0000000000
       179        36  DCM       CL1             5.1255098156       11.0639074356        5.9460141984  CLST      36              1.0000000000
       180        36  DCM       CL2             5.7782212926        8.2232176206        5.6754906553  CLST      36              1.0000000000
       181        37  DCM       C               6.5310417431       10.6568256770       -8.1842654516  CLST      37              1.0000000000
       182        37  DCM       H1              6.6563484955        9.8389472294       -7.4436747033  CLST      37              1.0000000000
       183        37  DCM       H2              7.3687695352       11.3820596980       -8.1235066574  CLST      37              1.0000000000
       184        37  DCM       CL1             6.4878963414        9.9551402254       -9.8274704532  CLST      37              1.0000000000
       185        37  DCM       CL2             5.0022309435       11.5195046210       -7.8488865625  CLST      37              1.0000000000
       186        38  DCM       C              -9.4286780653      -10.0616790022       -2.8006967924  CLST      38              1.0000000000
       187        38  DCM       H1             -9.2356295386       -9.0393830613       -2.4123036749  CLST      38              1.0000000000
       188        38  DCM       H2            -10.4721627954      -10.3782499541       -2.5906602353  CLST      38              1.0000000000
       189        38  DCM       CL1            -9.1641973078      -10.0716509558       -4.5685244993  CLST      38              1.0000000000
       190        38  DCM       CL2            -8.3027993293      -11.2050775921       -2.0125977401  CLST      38              1.0000000000
       191        39  DCM       C              -8.3230269216        1.1777073992       -7.4481736593  CLST      39              1.0000000000
       192        39  DCM       H1             -8.1667466603        1.6963328748       -6.4786560799  CLST      39              1.0000000000
       193        39  DCM       H2             -9.4051477999        1.0494755350       -7.6633622013  CLST      39              1.0000000000
       194        39  DCM       CL1            -7.5825043567        2.1499917790       -8.7524683201  CLST      39              1.0000000000
       195        39  DCM       CL2            -7.5476265649       -0.4317464362       -7.3774296411  CLST      39              1.0000000000
       196        40  DCM       C              -0.5749297890        9.7108997404      -10.6525673702  CLST      40              1.0000000000
       197        40  DCM       H1             -0.3052986220        8.6615601083      -10.4087890642  CLST      40              1.0000000000
       198        40  DCM       H2             -1.6739286768        9.8249726285      -10.7669121433  CLST      40              1.0000000000
       199        40  DCM       CL1            -0.0127889995       10.7755004830       -9.3313399973  CLST      40              1.0000000000
       200        40  DCM       CL2             0.2199902081       10.1711174055      -12.1862319757  CLST      40              1.0000000000
       201        41  DCM       C               8.8802278724        0.7262183523       -3.5744448862  CLST      41              1.0000000000
       202        41  DCM       H1              8.2397494435        0.2696841606       -2.7917335702  CLST      41              1.0000000000
       203        41  DCM       H2              8.6852757986        1.8159143156       -3.6619659066  CLST      41              1.0000000000
       204        41  DCM       CL1            10.5971427692        0.4745312749       -3.1467009362  CLST      41              1.0000000000
       205        41  DCM       CL2             8.5258453170       -0.0614300931       -5.1388510960  CLST      41              1.0000000000
       206        42  DCM       C              -7.8338370012       -4.2563796185        1.5016127259  CLST      42              1.0000000000
       207        42  DCM       H1             -7.1842144856       -4.6961263370        0.7162651425  CLST      42              1.0000000000
       208        42  DCM       H2             -7.9216624941       -4.9382383349        2.3743987782  CLST      42              1.0000000000
       209        42  DCM       CL1            -7.1265826710       -2.7066233501        2.0411098862  CLST      42              1.0000000000
       210        42  DCM       CL2            -9.4578127374       -3.9694366540        0.8123190012  CLST      42              1.0000000000
       211        43  DCM       C              -1.0520624147       -0.2395393959        6.4005737234  CLST      43              1.0000000000
       212        43  DCM       H1             -1.2468329575       -1.2164640488        5.9094512706  CLST      43              1.0000000000
       213        43  DCM       H2              0.0190829852        0.0405134168        6.3207671714  CLST      43              1.0000000000
       214        43  DCM       CL1            -2.0406470879        1.0207545864        5.6073394195  CLST      43              1.0000000000
       215        43  DCM       CL2            -1.4939731504       -0.3591221334        8.1283643995  CLST      43              1.0000000000
       216        44  DCM       C              -0.5995827722       -6.4970273616       -2.9815230920  CLST      44              1.0000000000
       217        44  DCM       H1             -0.1600007627       -7.5162994816       -3.0179340745  CLST      44              1.0000000000
       218        44  DCM       H2             -0.8812427946       -6.2180114024       -1.9442028952  CLST      44              1.0000000000
       219        44  DCM       CL1             0.6035033346       -5.3247261644       -3.5927074900  CLST      44              1.0000000000
       220        44  DCM       CL2            -2.0612953263       -6.4601265752       -4.0091073408  CLST      44              1.0000000000
       221        45  DCM       C              -3.7896376088        5.1707209595       -3.2424295618  CLST      45              1.0000000000
       222        45  DCM       H1             -2.7176354316        5.4538726359       -3.2798480940  CLST      45              1.0000000000
       223        45  DCM       H2             -3.9172797717        4.0783360096       -3.3924609215  CLST      45              1.0000000000
       224        45  DCM       CL1            -4.4492725775        5.6206619443       -1.6437163971  CLST      45              1.0000000000
       225        45  DCM       CL2            -4.6666747510        6.0429141224       -4.5333224186  CLST      45              1.0000000000
       226        46  DCM       C              10.9526172533       -7.0183264780       -8.3005292574  CLST      46              1.0000000000
       227        46  DCM       H1             10.5618764105       -8.0576148428       -8.2889533226  CLST      46              1.0000000000
       228        46  DCM       H2             12.0629458179       -7.0118008916       -8.2900369739  CLST      46              1.0000000000
       229        46  DCM       CL1            10.3767068499       -6.1993579170       -9.7812000223  CLST      46              1.0000000000
       230        46  DCM       CL2            10.3520053628       -6.1512861410       -6.8568946805  CLST      46              1.0000000000
       231        47  DCM       C               6.2885757992       -3.7354713962       10.7185611140  CLST      47              1.0000000000
       232        47  DCM       H1              5.4943297032       -2.9609712884       10.6687959435  CLST      47              1.0000000000
       233        47  DCM       H2              6.3724440019       -4.1550048379       11.7421746289  CLST      47              1.0000000000
       234        47  DCM       CL1             5.8897157697       -5.0571998585        9.5832479174  CLST      47              1.0000000000
       235        47  DCM       CL2             7.8538113376       -2.9976593097       10.2710673441  CLST      47              1.0000000000
       236        48  DCM       C              -8.2611618494      -10.2779093014        5.4422650466  CLST      48              1.0000000000
       237        48  DCM       H1             -8.4245682218       -9.2746210507        4.9950127459  CLST      48              1.0000000000
       238        48  DCM       H2             -7.9472585573      -10.1952451460        6.5042360056  CLST      48              1.0000000000
       239        48  DCM       CL1            -9.7862707701      -11.2073128878        5.3578530230  CLST      48              1.0000000000
       240        48  DCM       CL2            -6.9830016249      -11.1235666767        4.5219938500  CLST      48              1.0000000000
       241        49  DCM       C               3.4190598312        6.7018381425       -6.6976301474  CLST      49              1.0000000000
       242        49  DCM       H1              3.2145725667        5.6110553306       -6.7488060557  CLST      49              1.0000000000
       243        49  DCM       H2              4.3362061216        6.9640577021       -7.2657719099  CLST      49              1.0000000000
       244        49  DCM       CL1             2.0314871069        7.5890351200       -7.3933202537  CLST      49              1.0000000000
       245        49  DCM       CL2             3.6422575984        7.1716717429       -4.9871363790  CLST      49              1.0000000000
       246        50  DCM       C              -2.5643918552       -8.2369638830       10.2646109573  CLST      50              1.0000000000
       247        50  DCM       H1             -3.6415208630       -8.1948931539        9.9975845100  CLST      50              1.0000000000
       248        50  DCM       H2             -2.4232625338       -8.1595565889       11.3632638459  CLST      50              1.0000000000
       249        50  DCM       CL1            -1.8867856775       -9.7916360895        9.6999856656  CLST      50              1.0000000000
       250        50  DCM       CL2            -1.7160623874       -6.8778324935        9.4720568618  CLST      50              1.0000000000
       251        51  DCM       C               8.1187083926       -8.0871348916       10.5645853013  CLST      51              1.0000000000
       252        51  DCM       H1              7.9561585367       -9.0278326274       11.1319397069  CLST      51              1.0000000000
       253        51  DCM       H2              7.6947933828       -8.1588518434        9.5404413666  CLST      51              1.0000000000
       254        51  DCM       CL1             7.3232364671       -6.7404975380       11.4307541017  CLST      51              1.0000000000
       255        51  DCM       CL2             9.8753672467       -7.7783345331       10.4446116619  CLST      51              1.0000000000
       256        52  DCM       C               3.9662328613        6.5421214342      -10.8784433405  CLST      52              1.0000000000
       257        52  DCM       H1              2.9359938729        6.9213118469      -10.7102560950  CLST      52              1.0000000000
       258        52  DCM       H2              4.6852923845        7.0090745950      -10.1725344895  CLST      52              1.0000000000
       259        52  DCM       CL1             3.9788520890        4.7721738795      -10.6315242539  CLST      52              1.0000000000
       260        52  DCM       CL2             4.4618794194        6.9255677807      -12.5529378670  CLST      52              1.0000000000
       261        53  DCM       C               4.0787615307        0.5433531138        3.6470112768  CLST      53              1.0000000000
       262        53  DCM       H1              3.5449018852        1.1901044278        4.3747184634  CLST      53              1.0000000000
       263        53  DCM       H2              4.8001855794        1.1337070956        3.0433168676  CLST      53              1.0000000000
       264        53  DCM       CL1             4.9689072649       -0.7260511358        4.5376677343  CLST      53              1.0000000000
       265        53  DCM       CL2             2.8813361977       -0.2094578762        2.5541388513  CLST      53              1.0000000000
       266        54  DCM       C               4.3346162699       -4.9283640681        5.4068111682  CLST      54              1.0000000000
       267        54  DCM       H1              3.5140452327       -5.6090303321        5.0953218937  CLST      54              1.0000000000
       268        54  DCM       H2              5.3048419673       -5.4652861406        5.4473398670  CLST      54              1.0000000000
       269        54  DCM       CL1             4.4639497106       -3.5909657388        4.2281178707  CLST      54              1.0000000000
       270        54  DCM       CL2             3.9724777290       -4.2742592454        7.0298840018  CLST      54              1.0000000000
       271        55  DCM       C             -10.1898533830       -4.1536798063       -6.4197651740  CLST      55              1.0000000000
       272        55  DCM       H1            -10.7994085332       -4.6537452638       -7.2007402335  CLST      55              1.0000000000
       273        55  DCM       H2             -9.4409376898       -3.4732235476       -6.8747486731  CLST      55              1.0000000000
       274        55  DCM       CL1           -11.2688412074       -3.2009176944       -5.3608434454  CLST      55              1.0000000000
       275        55  DCM       CL2            -9.3341808272       -5.3952368483       -5.4610310239  CLST      55              1.0000000000
       276        56  DCM       C              -0.1293782326       -8.1093092234        6.2293300898  CLST      56              1.0000000000
       277        56  DCM       H1             -0.4557080800       -9.0569873454        5.7506798568  CLST      56              1.0000000000
       278        56  DCM       H2              0.9302448706       -7.8836865650        5.9845162533  CLST      56              1.0000000000
       279        56  DCM       CL1            -1.1598020564       -6.7746314504        5.6367217452  CLST      56              1.0000000000
       280        56  DCM       CL2            -0.2974014799       -8.2627213386        8.0020992298  CLST      56              1.0000000000
       281        57  DCM       C               4.8488377384        1.7133565549      -11.1674915055  CLST      57              1.0000000000
       282        57  DCM       H1              4.8894998545        0.6819058654      -11.5772817905  CLST      57              1.0000000000
       283        57  DCM       H2              3.8237663072        1.9679880565      -10.8251868936  CLST      57              1.0000000000
       284        57  DCM       CL1             5.9699997133        1.8308377611       -9.7819466566  CLST      57              1.0000000000
       285        57  DCM       CL2             5.3411266153        2.8664098454      -12.4414705697  CLST      57              1.0000000000
       286        58  DCM       C              -9.7881115879       10.3412286986       -8.9224758684  CLST      58              1.0000000000
       287        58  DCM       H1             -9.4417899905       10.7800604949       -9.8812125919  CLST      58              1.0000000000
       288        58  DCM       H2             -9.5357944993       11.0007421529       -8.0658433910  CLST      58              1.0000000000
       289        58  DCM       CL1           -11.5620429781       10.1296732934       -8.9886487509  CLST      58              1.0000000000
       290        58  DCM       CL2            -8.9987552552        8.7544166032       -8.6894230620  CLST      58              1.0000000000
       291        59  DCM       C               8.7288304568      -10.5537224515       -6.5601039383  CLST      59              1.0000000000
       292        59  DCM       H1              9.6039840843      -10.6839807256       -7.2314810158  CLST      59              1.0000000000
       293        59  DCM       H2              7.9851251753       -9.8569947953       -7.0016820558  CLST      59              1.0000000000
       294        59  DCM       CL1             7.9526513126      -12.1433434266       -6.3058393053  CLST      59              1.0000000000
       295        59  DCM       CL2             9.2898405711       -9.8939923090       -4.9958133884  CLST      59              1.0000000000
       296        60  DCM       C              -0.9193349915       -8.6516136386       -7.0967446195  CLST      60              1.0000000000
       297        60  DCM       H1             -1.8788985107       -8.2450915131       -6.7130986743  CLST      60              1.0000000000
       298        60  DCM       H2             -0.7215368988       -8.2993660066       -8.1311316323  CLST      60              1.0000000000
       299        60  DCM       CL1             0.4097493070       -8.1045533674       -6.0342826023  CLST      60              1.0000000000
       300        60  DCM       CL2            -1.0020804278      -10.4374497707       -7.0937815416  CLST      60              1.0000000000
       301        61  DCM       C               5.0782853087       -2.3405817978       -8.9154206215  CLST      61              1.0000000000
       302        61  DCM       H1              4.1230013619       -2.2164650238       -9.4669721770  CLST      61              1.0000000000
       303        61  DCM       H2              5.8349033966       -1.6020706048       -9.2571498482  CLST      61              1.0000000000
       304        61  DCM       CL1             4.7798345033       -2.0973719301       -7.1698371366  CLST      61              1.0000000000
       305        61  DCM       CL2             5.7055169782       -3.9907201696       -9.1990591633  CLST      61              1.0000000000
       306        62  DCM       C              -4.7991147285        1.2857420552       -3.9399836726  CLST      62              1.0000000000
       307        62  DCM       H1             -4.5045513886        1.5056287588       -2.8934457502  CLST      62              1.0000000000
       308        62  DCM       H2             -5.7381880825        1.8137826856       -4.2064024225  CLST      62              1.0000000000
       309        62  DCM       CL1            -3.4889609102        1.8233642862       -5.0310895767  CLST      62              1.0000000000
       310        62  DCM       CL2            -5.0483555305       -0.4757523519       -4.1095699762  CLST      62              1.0000000000
       311        63  DCM       C               6.0147552163       -8.8951166960        7.3910715830  CLST      63              1.0000000000
       312        63  DCM       H1              6.9939387997       -8.3710184464        7.3928564614  CLST      63              1.0000000000
       313        63  DCM       H2              6.1235447470       -9.9470563584        7.0515451897  CLST      63              1.0000000000
       314        63  DCM       CL1             5.3499529052       -8.8866780816        9.0504460299  CLST      63              1.0000000000
       315        63  DCM       CL2             4.8991727826       -8.0404679356        6.2858850412  CLST      63              1.0000000000
       316        64  DCM       C               2.7663827878       11.4275691851        3.0646965616  CLST      64              1.0000000000
       317        64  DCM       H1              2.7653042307       11.9014539686        4.0689681000  CLST      64              1.0000000000
       318        64  DCM       H2              2.8836258387       12.1873699201        2.2641463262  CLST      64              1.0000000000
       319        64  DCM       CL1             4.1246344942       10.2694760197        2.9672884086  CLST      64              1.0000000000
       320        64  DCM       CL2             1.2179263580       10.5675673214        2.8230353666  CLST      64              1.0000000000
       321        65  DCM       C               8.5746345711       -6.5250967140        4.7749837906  CLST      65              1.0000000000
       322        65  DCM       H1              7.8161501668       -7.2696806836        5.0972389664  CLST      65              1.0000000000
       323        65  DCM       H2              8.3690976581       -6.1699082551        3.7430146626  CLST      65              1.0000000000
       324        65  DCM       CL1             8.5319523989       -5.1301582748        5.8919601934  CLST      65              1.0000000000
       325        65  DCM       CL2            10.1917538767       -7.2858871348        4.8169235082  CLST      65              1.0000000000
       326        66  DCM       C              -7.9244198137       -1.3358390777        5.6428493526  CLST      66              1.0000000000
       327        66  DCM       H1             -7.8993550938       -1.2559858920        6.7499989623  CLST      66              1.0000000000
       328        66  DCM       H2             -7.5010541757       -0.4266955433        5.1659012387  CLST      66              1.0000000000
       329        66  DCM       CL1            -6.9621224331       -2.7557403419        5.1411123691  CLST      66              1.0000000000
       330        66  DCM       CL2            -9.6201087605       -1.5359342671        5.1133529422  CLST      66              1.0000000000
       331        67  DCM       C             -10.0465760155        1.6727919328        8.3066805577  CLST      67              1.0000000000
       332        67  DCM       H1            -10.1484346925        1.1792307706        7.3170421549  CLST      67              1.0000000000
       333        67  DCM       H2            -10.2325890542        0.9533883377        9.1323610175  CLST      67              1.0000000000
       334        67  DCM       CL1            -8.3887947426        2.3233546868        8.4645003007  CLST      67              1.0000000000
       335        67  DCM       CL2           -11.2332476969        3.0056414859        8.4166799582  CLST      67              1.0000000000
       336        68  DCM       C              -6.4259953143        9.3869289333       10.1957806331  CLST      68              1.0000000000
       337        68  DCM       H1             -6.4540837530        9.3378296342        9.0866786881  CLST      68              1.0000000000
       338        68  DCM       H2             -5.5622137847        9.9896920011       10.5469139761  CLST      68              1.0000000000
       339        68  DCM       CL1            -7.9368004981       10.1408318936       10.7813039383  CLST      68              1.0000000000
       340        68  DCM       CL2            -6.2850933724        7.7280839185       10.8476228587  CLST      68              1.0000000000
       341        69  DCM       C              -8.5769227113       -8.2818538851        2.0846234779  CLST      69              1.0000000000
       342        69  DCM       H1             -8.7651405515       -9.3350949694        1.7888218813  CLST      69              1.0000000000
       343        69  DCM       H2             -7.9976101249       -8.2312838424        3.0305840822  CLST      69              1.0000000000
       344        69  DCM       CL1            -7.6514445319       -7.4706998354        0.7884941536  CLST      69              1.0000000000
       345        69  DCM       CL2           -10.1445727129       -7.4556785868        2.3175728269  CLST      69              1.0000000000
       346        70  DCM       C              -0.4548776366       -9.6733856308      -10.9165612875  CLST      70              1.0000000000
       347        70  DCM       H1              0.0346528710       -8.8068822947      -11.4101178317  CLST      70              1.0000000000
       348        70  DCM       H2              0.1024574171       -9.9829403038      -10.0078515354  CLST      70              1.0000000000
       349        70  DCM       CL1            -2.1175528507       -9.2118151576      -10.4493389184  CLST      70              1.0000000000
       350        70  DCM       CL2            -0.5054773348      -11.0447542048      -12.0627766358  CLST      70              1.0000000000
       351        71  DCM       C               8.6577817668       11.2768166851        0.9193172986  CLST      71              1.0000000000
       352        71  DCM       H1              8.9646451849       10.3629516921        0.3679854971  CLST      71              1.0000000000
       353        71  DCM       H2              8.2598030820       12.0474038920        0.2263319730  CLST      71              1.0000000000
       354        71  DCM       CL1             7.3831669861       10.8490730347        2.0965938334  CLST      71              1.0000000000
       355        71  DCM       CL2            10.0784390778       11.9437284611        1.7751467210  CLST      71              1.0000000000
       356        72  DCM       C               7.6892873335        1.5334729974        2.0283208609  CLST      72              1.0000000000
       357        72  DCM       H1              7.8578625389        2.1788601409        2.9164338717  CLST      72              1.0000000000
       358        72  DCM       H2              6.6128466840        1.5037546110        1.7576170655  CLST      72              1.0000000000
       359        72  DCM       CL1             8.6193256962        2.1905762580        0.6505699418  CLST      72              1.0000000000
       360        72  DCM       CL2             8.2464227493       -0.1239658482        2.3994647541  CLST      72              1.0000000000
       361        73  DCM       C              -1.1329034292        4.3443276271       -8.9825471423  CLST      73              1.0000000000
       362        73  DCM       H1             -1.2089137717        4.0253801146      -10.0439028304  CLST      73              1.0000000000
       363        73  DCM       H2             -1.9503114555        3.9056684574       -8.3727766225  CLST      73              1.0000000000
       364        73  DCM       CL1             0.4362218384        3.8042041330       -8.3200296313  CLST      73              1.0000000000
       365        73  DCM       CL2            -1.2408408372        6.1255638025       -8.9022008269  CLST      73              1.0000000000
       366        74  DCM       C              -0.3670363895       11.5218189337        6.2250459493  CLST      74              1.0000000000
       367        74  DCM       H1             -0.7324653053       12.0142892517        7.1503717539  CLST      74              1.0000000000
       368        74  DCM       H2              0.4878043881       10.8479833700        6.4450167724  CLST      74              1.0000000000
       369        74  DCM       CL1            -1.6947619210       10.5617504503        5.5108245619  CLST      74              1.0000000000
       370        74  DCM       CL2             0.1613825605       12.7802544807        5.0715865971  CLST      74              1.0000000000
       371        75  DCM       C              -5.8910587248        7.0593543914       -9.9256054610  CLST      75              1.0000000000
       372        75  DCM       H1             -6.6660376464        6.7585345531       -9.1890091664  CLST      75              1.0000000000
       373        75  DCM       H2             -6.2706577715        6.9703321086      -10.9647635900  CLST      75              1.0000000000
       374        75  DCM       CL1            -5.4284915061        8.7586305704       -9.6180718020  CLST      75              1.0000000000
       375        75  DCM       CL2            -4.4643137299        5.9986137194       -9.7349155955  CLST      75              1.0000000000
       376        76  DCM       C               9.9393065447       -0.2495367049       -8.6401199696  CLST      76              1.0000000000
       377        76  DCM       H1             10.3589557458       -0.6569159437       -9.5837141270  CLST      76              1.0000000000
       378        76  DCM       H2              9.1067149128        0.4549767355       -8.8454250747  CLST      76              1.0000000000
       379        76  DCM       CL1             9.3218832400       -1.6023957295       -7.6487556973  CLST      76              1.0000000000
       380        76  DCM       CL2            11.2286710230        0.6181140675       -7.7582309469  CLST      76              1.0000000000
       381        77  DCM       C               0.4422674824        7.7059924189        4.8753150700  CLST      77              1.0000000000
       382        77  DCM       H1              0.6969907277        8.7099787457        5.2756549775  CLST      77              1.0000000000
       383        77  DCM       H2             -0.6269160544        7.4655129711        5.0549121292  CLST      77              1.0000000000
       384        77  DCM       CL1             0.7560978886        7.6827702757        3.1159203194  CLST      77              1.0000000000
       385        77  DCM       CL2             1.4579371176        6.4822383918        5.6907255523  CLST      77              1.0000000000
       386        78  DCM       C              -8.6262188566        7.8292782090        5.7394059149  CLST      78              1.0000000000
       387        78  DCM       H1             -8.6069322242        8.7214806425        5.0794508197  CLST      78              1.0000000000
       388        78  DCM       H2             -9.6647117047        7.4628285062        5.8833633636  CLST      78              1.0000000000
       389        78  DCM       CL1            -7.6521211841        6.5340305553        4.9865537096  CLST      78              1.0000000000
       390        78  DCM       CL2            -7.9360285244        8.2683439133        7.3286506830  CLST      78              1.0000000000
       391        79  DCM       C               9.3363980098        7.2967551962       10.1530072270  CLST      79              1.0000000000
       392        79  DCM       H1              8.8763462034        8.3023937540       10.0504479869  CLST      79              1.0000000000
       393        79  DCM       H2              9.1894201904        6.6939167172        9.2320794485  CLST      79              1.0000000000
       394        79  DCM       CL1            11.0896306063        7.4879634088       10.4475795902  CLST      79              1.0000000000
       395        79  DCM       CL2             8.5735727197        6.4454146122       11.5270537719  CLST      79              1.0000000000
       396        80  DCM       C               3.7787427284        1.8368597734        8.5060910537  CLST      80              1.0000000000
       397        80  DCM       H1              4.2913201685        1.2908174166        7.6861771455  CLST      80              1.0000000000
       398        80  DCM       H2              2.6771419639        1.7124625079        8.4386511595  CLST      80              1.0000000000
       399        80  DCM       CL1             4.1804347009        3.5746664931        8.3875030270  CLST      80              1.0000000000
       400        80  DCM       CL2             4.3424683664        1.1911616006       10.0742291909  CLST      80              1.0000000000
       401        81  DCM       C              -2.8227632944        1.1357915281        0.5303819131  CLST      81              1.0000000000
       402        81  DCM       H1             -2.2468285126        0.7230635969        1.3853732647  CLST      81              1.0000000000
       403        81  DCM       H2             -3.7301390302        1.6716722024        0.8806884026  CLST      81              1.0000000000
       404        81  DCM       CL1            -1.7850275322        2.2772255968       -0.3719361624  CLST      81              1.0000000000
       405        81  DCM       CL2            -3.3182461902       -0.2074881230       -0.5389882342  CLST      81              1.0000000000
       406        82  DCM       C               3.0300949183       11.5602980724        9.1389774947  CLST      82              1.0000000000
       407        82  DCM       H1              3.9961785003       11.6468483379        8.5980616578  CLST      82              1.0000000000
       408        82  DCM       H2              2.3603827469       10.8253417056        8.6443250891  CLST      82              1.0000000000
       409        82  DCM       CL1             3.3475163584       11.0214467892       10.8141412081  CLST      82              1.0000000000
       410        82  DCM       CL2             2.2283159685       13.1579832949        9.1570764606  CLST      82              1.0000000000
       411        83  DCM       C              -9.0574833472       -1.6012098588      -10.7929508344  CLST      83              1.0000000000
       412        83  DCM       H1             -9.6828671630       -0.7843805652      -10.3763882108  CLST      83              1.0000000000
       413        83  DCM       H2             -7.9819383876       -1.4212214422      -10.5845360121  CLST      83              1.0000000000
       414        83  DCM       CL1            -9.5453602507       -3.1490723088      -10.0444120564  CLST      83              1.0000000000
       415        83  DCM       CL2            -9.3042395351       -1.6815270041      -12.5614756683  CLST      83              1.0000000000
       416        84  DCM       C              -0.3476523961       -4.2398989849        4.4052845215  CLST      84              1.0000000000
       417        84  DCM       H1             -0.9052121548       -3.3275410201        4.7051155782  CLST      84              1.0000000000
       418        84  DCM       H2             -0.6136742422       -5.1010312223        5.0540073360  CLST      84              1.0000000000
       419        84  DCM       CL1            -0.7570031017       -4.6400803838        2.7130435115  CLST      84              1.0000000000
       420        84  DCM       CL2             1.4065987666       -3.9262649864        4.5447725620  CLST      84              1.0000000000
       421        85  DCM       C              -8.6304251292       -2.8212048568        9.2765449491  CLST      85              1.0000000000
       422        85  DCM       H1             -7.5925083012       -2.5121508139        9.5232698648  CLST      85              1.0000000000
       423        85  DCM       H2             -8.6344321206       -3.7265299914        8.6343009005  CLST      85              1.0000000000
       424        85  DCM       CL1            -9.5070987424       -3.1814089186       10.7921655130  CLST      85              1.0000000000
       425        85  DCM       CL2            -9.4437611674       -1.4880994130        8.4068759271  CLST      85              1.0000000000
       426        86  DCM       C             -10.9342458948        1.5811707667       -0.5971464920  CLST      86              1.0000000000
       427        86  DCM       H1            -11.1412695243        2.4707068920       -1.2289889666  CLST      86              1.0000000000
       428        86  DCM       H2            -10.3141967458        1.8509704758        0.2838550632  CLST      86              1.0000000000
       429        86  DCM       CL1           -12.4860017557        0.8988420056       -0.0283594564  CLST      86              1.0000000000
       430        86  DCM       CL2           -10.0585663976        0.3660892205       -1.5737583641  CLST      86              1.0000000000
       431        87  DCM       C             -10.3417655162       -9.1632355640      -11.0719400848  CLST      87              1.0000000000
       432        87  DCM       H1             -9.6687148873       -9.3346998602      -10.2052015313  CLST      87              1.0000000000
       433        87  DCM       H2            -10.7126835494      -10.1235509723      -11.4885389998  CLST      87              1.0000000000
       434        87  DCM       CL1           -11.7394693912       -8.1841025840      -10.5388746258  CLST      87              1.0000000000
       435        87  DCM       CL2            -9.4373512884       -8.2921356539      -12.3433745757  CLST      87              1.0000000000
       436        88  DCM       C              -5.1756626539       -6.0576707293       -7.0637851725  CLST      88              1.0000000000
       437        88  DCM       H1             -6.1455741917       -6.3206025813       -7.5352348780  CLST      88              1.0000000000
       438        88  DCM       H2             -5.1581343480       -4.9909814209       -6.7556871513  CLST      88              1.0000000000
       439        88  DCM       CL1            -4.9343347426       -7.0844469306       -5.6208771602  CLST      88              1.0000000000
       440        88  DCM       CL2            -3.8617858455       -6.3429720246       -8.2416091571  CLST      88              1.0000000000
       441        89  DCM       C              10.1448341183       -7.7266611019       -1.2363974055  CLST      89              1.0000000000
       442        89  DCM       H1             11.2305974973       -7.8595459912       -1.0446428113  CLST      89              1.0000000000
       443        89  DCM       H2              9.6085922111       -8.6979759568       -1.1929576166  CLST      89              1.0000000000
       444        89  DCM       CL1             9.4661006504       -6.6330824700        0.0043586102  CLST      89              1.0000000000
       445        89  DCM       CL2             9.9247262307       -7.0132667375       -2.8609275865  CLST      89              1.0000000000
       446        90  DCM       C               7.1511836837       -7.6176292927       -4.5137653696  CLST      90              1.0000000000
       447        90  DCM       H1              8.1636495792       -7.4810969962       -4.9493096875  CLST      90              1.0000000000
       448        90  DCM       H2              6.9838012611       -8.6752925898       -4.2185724174  CLST      90              1.0000000000
       449        90  DCM       CL1             6.9957857620       -6.5771189178       -3.0674917979  CLST      90              1.0000000000
       450        90  DCM       CL2             5.9256174102       -7.1538917615       -5.7297810070  CLST      90              1.0000000000
       451        91  DCM       C              -5.4172024479       -0.3439258879       10.8208241840  CLST      91              1.0000000000
       452        91  DCM       H1             -5.0038562741       -0.9328935204        9.9748689952  CLST      91              1.0000000000
       453        91  DCM       H2             -4.8707250835        0.6141107558       10.9450524775  CLST      91              1.0000000000
       454        91  DCM       CL1            -7.1399992476        0.0076569225       10.4984365899  CLST      91              1.0000000000
       455        91  DCM       CL2            -5.2642616778       -1.2966512347       12.3257594000  CLST      91              1.0000000000
       456        92  DCM       C              10.2424284961        4.6370717640       -4.0290851030  CLST      92              1.0000000000
       457        92  DCM       H1              9.2903687757        5.1128055769       -4.3463146315  CLST      92              1.0000000000
       458        92  DCM       H2             11.0737291065        5.3728036012       -4.0279900846  CLST      92              1.0000000000
       459        92  DCM       CL1            10.0421570597        3.9761397710       -2.3808236307  CLST      92              1.0000000000
       460        92  DCM       CL2            10.6456366500        3.3170950668       -5.1635402238  CLST      92              1.0000000000
