* CHARMM CGENFF SD/ABNR BEFORE MLPOT (MM ONLY)
*  DATE:     6/28/26      2: 0:10      CREATED BY USER: boittier
*
       490  EXT
         1         1  DCM       C               3.9056750190       -4.0257148412       -5.2662515241  CLST      1               1.0000000000
         2         1  DCM       H1              2.9237600391       -3.5130331797       -5.2110690135  CLST      1               1.0000000000
         3         1  DCM       H2              3.8595023879       -5.0253317088       -4.7858714526  CLST      1               1.0000000000
         4         1  DCM       CL1             4.3445556776       -4.2263863637       -6.9853353693  CLST      1               1.0000000000
         5         1  DCM       CL2             5.1364334345       -3.0331968628       -4.4304023282  CLST      1               1.0000000000
         6         2  DCM       C              -4.5761491190        8.4592855456        7.2427084849  CLST      2               1.0000000000
         7         2  DCM       H1             -3.8278608368        8.2544339616        6.4476447170  CLST      2               1.0000000000
         8         2  DCM       H2             -4.0847669210        8.5660381239        8.2305721804  CLST      2               1.0000000000
         9         2  DCM       CL1            -5.4353242668        9.9791565421        6.8663811192  CLST      2               1.0000000000
        10         2  DCM       CL2            -5.7362561487        7.1030445338        7.3281821633  CLST      2               1.0000000000
        11         3  DCM       C               2.6304959466       -1.2709660086        0.3884051254  CLST      3               1.0000000000
        12         3  DCM       H1              1.7045630563       -1.8252329733        0.1280700764  CLST      3               1.0000000000
        13         3  DCM       H2              2.5005531770       -0.1810375618        0.2210043439  CLST      3               1.0000000000
        14         3  DCM       CL1             3.0137008405       -1.5546931412        2.1094027977  CLST      3               1.0000000000
        15         3  DCM       CL2             3.9739245616       -1.8639784069       -0.6312172686  CLST      3               1.0000000000
        16         4  DCM       C              -2.8711133083       -3.7671117111        4.7781936947  CLST      4               1.0000000000
        17         4  DCM       H1             -2.0905300748       -4.5128418968        4.5204995192  CLST      4               1.0000000000
        18         4  DCM       H2             -2.5316712514       -3.1186992922        5.6103878633  CLST      4               1.0000000000
        19         4  DCM       CL1            -4.3584084051       -4.6196691730        5.2829790548  CLST      4               1.0000000000
        20         4  DCM       CL2            -3.2075987504       -2.7498653005        3.3471693209  CLST      4               1.0000000000
        21         5  DCM       C              -3.4887739898       -0.2744639171        6.5939417446  CLST      5               1.0000000000
        22         5  DCM       H1             -4.1596543706        0.4014576745        7.1653783027  CLST      5               1.0000000000
        23         5  DCM       H2             -4.0718449946       -0.9663994853        5.9495718086  CLST      5               1.0000000000
        24         5  DCM       CL1            -2.4152109887        0.7145852528        5.5610783605  CLST      5               1.0000000000
        25         5  DCM       CL2            -2.5142798488       -1.2340049160        7.7464710206  CLST      5               1.0000000000
        26         6  DCM       C               7.2865547928        3.1958447362        5.6384969016  CLST      6               1.0000000000
        27         6  DCM       H1              6.5471789343        2.5162559333        6.1111399023  CLST      6               1.0000000000
        28         6  DCM       H2              7.9277880399        3.6829472791        6.4031964836  CLST      6               1.0000000000
        29         6  DCM       CL1             8.3189344743        2.2476759934        4.5304817683  CLST      6               1.0000000000
        30         6  DCM       CL2             6.4096679903        4.4560899565        4.7262375446  CLST      6               1.0000000000
        31         7  DCM       C              -4.9831458975        5.2275142737       -2.3079348271  CLST      7               1.0000000000
        32         7  DCM       H1             -5.2329932079        5.3396497308       -1.2314290691  CLST      7               1.0000000000
        33         7  DCM       H2             -4.0250819258        5.7357903333       -2.5492431166  CLST      7               1.0000000000
        34         7  DCM       CL1            -4.8266016615        3.4884554594       -2.6880430547  CLST      7               1.0000000000
        35         7  DCM       CL2            -6.2941015954        5.9456761228       -3.2895208605  CLST      7               1.0000000000
        36         8  DCM       C               7.3457367125       -1.6588229717        0.9822925003  CLST      8               1.0000000000
        37         8  DCM       H1              7.7700693330       -2.6018713801        1.3857497418  CLST      8               1.0000000000
        38         8  DCM       H2              6.2618076767       -1.5799803664        1.2128789456  CLST      8               1.0000000000
        39         8  DCM       CL1             8.1924959514       -0.2701931156        1.7212275849  CLST      8               1.0000000000
        40         8  DCM       CL2             7.5688844880       -1.6312394603       -0.7905181326  CLST      8               1.0000000000
        41         9  DCM       C             -11.2448131309       -9.4484786928        9.2727897353  CLST      9               1.0000000000
        42         9  DCM       H1            -10.9835572774       -9.2277925708        8.2164155652  CLST      9               1.0000000000
        43         9  DCM       H2            -12.3283925506       -9.2904771865        9.4563144006  CLST      9               1.0000000000
        44         9  DCM       CL1           -10.8339454737      -11.1511026970        9.6322551463  CLST      9               1.0000000000
        45         9  DCM       CL2           -10.3102513597       -8.3635932486       10.3426059547  CLST      9               1.0000000000
        46        10  DCM       C               6.9046742419       11.2937031178        7.6152903057  CLST      10              1.0000000000
        47        10  DCM       H1              7.8666626264       11.7326455189        7.2771782282  CLST      10              1.0000000000
        48        10  DCM       H2              6.7361014634       11.4845884346        8.6944024283  CLST      10              1.0000000000
        49        10  DCM       CL1             5.5707496824       12.0350982463        6.6843888290  CLST      10              1.0000000000
        50        10  DCM       CL2             6.9374974342        9.5262291045        7.3360653842  CLST      10              1.0000000000
        51        11  DCM       C              -7.0019907779        7.2411977477       -9.9711049087  CLST      11              1.0000000000
        52        11  DCM       H1             -7.1478276798        6.2605379940       -9.4721500833  CLST      11              1.0000000000
        53        11  DCM       H2             -6.0361417501        7.7018064296       -9.6753088026  CLST      11              1.0000000000
        54        11  DCM       CL1            -7.0092853628        7.0050838410      -11.7420836227  CLST      11              1.0000000000
        55        11  DCM       CL2            -8.3358371160        8.3328093092       -9.5012859216  CLST      11              1.0000000000
        56        12  DCM       C               6.3203661615       -5.7070996279        2.2312651840  CLST      12              1.0000000000
        57        12  DCM       H1              6.9107848360       -5.9966971694        1.3387908885  CLST      12              1.0000000000
        58        12  DCM       H2              5.7253214992       -6.5653523542        2.6044099491  CLST      12              1.0000000000
        59        12  DCM       CL1             5.2099246023       -4.3835350200        1.7889530765  CLST      12              1.0000000000
        60        12  DCM       CL2             7.4316243506       -5.1599128135        3.5176765912  CLST      12              1.0000000000
        61        13  DCM       C               2.1395744991       10.2054360161        6.9580678058  CLST      13              1.0000000000
        62        13  DCM       H1              2.5293072007       10.4434135707        5.9466167236  CLST      13              1.0000000000
        63        13  DCM       H2              1.2586326156        9.5341462166        6.8997855035  CLST      13              1.0000000000
        64        13  DCM       CL1             3.4213248015        9.3893830436        7.8929221377  CLST      13              1.0000000000
        65        13  DCM       CL2             1.6704014230       11.7269404679        7.7706659333  CLST      13              1.0000000000
        66        14  DCM       C               4.7783411192      -11.2138433443        2.5295165123  CLST      14              1.0000000000
        67        14  DCM       H1              4.8214311885      -10.1142772098        2.3848267310  CLST      14              1.0000000000
        68        14  DCM       H2              5.4904605487      -11.5417909938        3.3154051154  CLST      14              1.0000000000
        69        14  DCM       CL1             3.1206797752      -11.6640665121        3.0208825598  CLST      14              1.0000000000
        70        14  DCM       CL2             5.1991894574      -12.0232965598        0.9921126404  CLST      14              1.0000000000
        71        15  DCM       C              -1.8265843162        8.0453901374        0.9767355817  CLST      15              1.0000000000
        72        15  DCM       H1             -1.9564576462        9.1286312684        1.1812733481  CLST      15              1.0000000000
        73        15  DCM       H2             -1.6670892821        7.4783681121        1.9183632237  CLST      15              1.0000000000
        74        15  DCM       CL1            -3.2933782491        7.4281439457        0.1608864398  CLST      15              1.0000000000
        75        15  DCM       CL2            -0.4071227977        7.8241897573       -0.0846836577  CLST      15              1.0000000000
        76        16  DCM       C             -11.7944561190        3.4360695181       -6.9328882365  CLST      16              1.0000000000
        77        16  DCM       H1            -12.3548013661        4.0576077207       -7.6626824608  CLST      16              1.0000000000
        78        16  DCM       H2            -10.7145302523        3.4037691974       -7.1866926253  CLST      16              1.0000000000
        79        16  DCM       CL1           -11.9857588365        4.1349444617       -5.2989128693  CLST      16              1.0000000000
        80        16  DCM       CL2           -12.4461033526        1.7719929357       -6.9565494967  CLST      16              1.0000000000
        81        17  DCM       C               2.1956863811       -8.1589330628       -8.2023362573  CLST      17              1.0000000000
        82        17  DCM       H1              2.8811994007       -8.8311100132       -8.7597714447  CLST      17              1.0000000000
        83        17  DCM       H2              1.2785247950       -8.6986331292       -7.8820539701  CLST      17              1.0000000000
        84        17  DCM       CL1             3.0444457839       -7.5415193345       -6.7566390777  CLST      17              1.0000000000
        85        17  DCM       CL2             1.7328756693       -6.7944483375       -9.2594499428  CLST      17              1.0000000000
        86        18  DCM       C               0.4770200018       -8.0394682653        4.1678066417  CLST      18              1.0000000000
        87        18  DCM       H1              0.0421525914       -7.9769813855        3.1478960141  CLST      18              1.0000000000
        88        18  DCM       H2              0.0317835242       -8.8818941802        4.7383123884  CLST      18              1.0000000000
        89        18  DCM       CL1             0.1565295591       -6.5119152572        5.0379853491  CLST      18              1.0000000000
        90        18  DCM       CL2             2.2401269468       -8.2897760239        4.0344995618  CLST      18              1.0000000000
        91        19  DCM       C              -3.5820083483        5.2568109570       -9.2752083777  CLST      19              1.0000000000
        92        19  DCM       H1             -4.6183555245        5.3021137253       -8.8824746887  CLST      19              1.0000000000
        93        19  DCM       H2             -2.8746251154        5.7602072243       -8.5826608680  CLST      19              1.0000000000
        94        19  DCM       CL1            -3.1050967035        3.5448025678       -9.4585132850  CLST      19              1.0000000000
        95        19  DCM       CL2            -3.5251010231        6.0702919221      -10.8645155768  CLST      19              1.0000000000
        96        20  DCM       C              -2.6387047780       -6.0222221112        1.2341908287  CLST      20              1.0000000000
        97        20  DCM       H1             -3.5793660420       -6.2654948382        0.6971762124  CLST      20              1.0000000000
        98        20  DCM       H2             -2.5170157229       -4.9254143182        1.3482241499  CLST      20              1.0000000000
        99        20  DCM       CL1            -1.2609604429       -6.6742211226        0.3097272457  CLST      20              1.0000000000
       100        20  DCM       CL2            -2.6752940732       -6.7761222211        2.8498789522  CLST      20              1.0000000000
       101        21  DCM       C              -0.2154649778        1.5948260906        8.6242743023  CLST      21              1.0000000000
       102        21  DCM       H1             -0.1879996811        0.5402992551        8.2780606604  CLST      21              1.0000000000
       103        21  DCM       H2              0.4847650899        1.7542264305        9.4715420124  CLST      21              1.0000000000
       104        21  DCM       CL1            -1.8763206793        1.9803396355        9.1570240136  CLST      21              1.0000000000
       105        21  DCM       CL2             0.2488609624        2.6643227946        7.2707364342  CLST      21              1.0000000000
       106        22  DCM       C              -7.0139491323       -5.9207473796        0.6146136123  CLST      22              1.0000000000
       107        22  DCM       H1             -6.2838787343       -6.3458063073       -0.1054816826  CLST      22              1.0000000000
       108        22  DCM       H2             -7.6543493669       -5.1548454894        0.1283257690  CLST      22              1.0000000000
       109        22  DCM       CL1            -8.0473084821       -7.2424905106        1.2317481521  CLST      22              1.0000000000
       110        22  DCM       CL2            -6.1210563570       -5.1651188891        1.9670778495  CLST      22              1.0000000000
       111        23  DCM       C               7.0710167277       -6.0932113897       -5.4426875261  CLST      23              1.0000000000
       112        23  DCM       H1              7.1678884415       -5.4894249531       -6.3678249222  CLST      23              1.0000000000
       113        23  DCM       H2              6.2401499368       -5.7186896962       -4.8113856462  CLST      23              1.0000000000
       114        23  DCM       CL1             8.5933130818       -5.9851059098       -4.5145946548  CLST      23              1.0000000000
       115        23  DCM       CL2             6.7406827833       -7.7929249598       -5.8835200300  CLST      23              1.0000000000
       116        24  DCM       C               5.1189082133        6.4294713257        9.4747872862  CLST      24              1.0000000000
       117        24  DCM       H1              4.8296560239        7.4872289244        9.6450112205  CLST      24              1.0000000000
       118        24  DCM       H2              6.1073720048        6.2083000936        9.9303542437  CLST      24              1.0000000000
       119        24  DCM       CL1             3.8888833328        5.3605231762       10.2122505016  CLST      24              1.0000000000
       120        24  DCM       CL2             5.2101469659        6.1226067447        7.7171916652  CLST      24              1.0000000000
       121        25  DCM       C               7.4942465184       -1.3938606748        5.3548336806  CLST      25              1.0000000000
       122        25  DCM       H1              8.1833807705       -0.8202494532        4.6995236237  CLST      25              1.0000000000
       123        25  DCM       H2              7.9914175237       -2.3020674540        5.7568317583  CLST      25              1.0000000000
       124        25  DCM       CL1             6.9859636421       -0.3548424149        6.7175454012  CLST      25              1.0000000000
       125        25  DCM       CL2             6.0628948957       -1.8873347994        4.4061861842  CLST      25              1.0000000000
       126        26  DCM       C              -2.2446495115        5.3680615032        8.8791040501  CLST      26              1.0000000000
       127        26  DCM       H1             -1.2847051595        4.8690240674        9.1310224827  CLST      26              1.0000000000
       128        26  DCM       H2             -3.1108192776        4.7054098659        9.0853798556  CLST      26              1.0000000000
       129        26  DCM       CL1            -2.4024411847        6.8471412175        9.8669193870  CLST      26              1.0000000000
       130        26  DCM       CL2            -2.2423671377        5.7807619559        7.1412663445  CLST      26              1.0000000000
       131        27  DCM       C              11.5189822362        6.0548855277       -1.2496215426  CLST      27              1.0000000000
       132        27  DCM       H1             10.6983588079        5.3170642014       -1.3743415689  CLST      27              1.0000000000
       133        27  DCM       H2             12.1888396495        6.0582576013       -2.1348504376  CLST      27              1.0000000000
       134        27  DCM       CL1            10.8135516902        7.6847324451       -1.0470631696  CLST      27              1.0000000000
       135        27  DCM       CL2            12.4732561797        5.6236333028        0.1987683449  CLST      27              1.0000000000
       136        28  DCM       C             -11.0772303284       -1.4816560415       -7.8626184842  CLST      28              1.0000000000
       137        28  DCM       H1            -12.0456570047       -1.1081290100       -8.2573592900  CLST      28              1.0000000000
       138        28  DCM       H2            -10.5212979447       -0.6725678950       -7.3437678406  CLST      28              1.0000000000
       139        28  DCM       CL1           -11.3899874934       -2.8020664060       -6.7000005506  CLST      28              1.0000000000
       140        28  DCM       CL2           -10.0902792071       -2.0917764304       -9.2230062488  CLST      28              1.0000000000
       141        29  DCM       C               2.5782993627        5.9492810303       -6.0267795403  CLST      29              1.0000000000
       142        29  DCM       H1              3.4758747314        5.9286450231       -5.3748367653  CLST      29              1.0000000000
       143        29  DCM       H2              2.4133881923        4.9629378823       -6.5093947838  CLST      29              1.0000000000
       144        29  DCM       CL1             1.1495770313        6.3628358785       -5.0338999712  CLST      29              1.0000000000
       145        29  DCM       CL2             2.8146024462        7.1799885474       -7.3005955698  CLST      29              1.0000000000
       146        30  DCM       C              -2.4330370224       -2.6451030532      -10.6473704049  CLST      30              1.0000000000
       147        30  DCM       H1             -3.4701733105       -3.0399501967      -10.6215525992  CLST      30              1.0000000000
       148        30  DCM       H2             -2.2876115762       -1.8561519767       -9.8802965014  CLST      30              1.0000000000
       149        30  DCM       CL1            -1.2923017263       -3.9835544943      -10.3296351665  CLST      30              1.0000000000
       150        30  DCM       CL2            -2.1207425727       -1.9468672209      -12.2621644128  CLST      30              1.0000000000
       151        31  DCM       C               3.0354868144        2.4903622336        4.1248808638  CLST      31              1.0000000000
       152        31  DCM       H1              2.3937935962        2.5609748155        5.0276171346  CLST      31              1.0000000000
       153        31  DCM       H2              3.5216638140        3.4647371374        3.9067778340  CLST      31              1.0000000000
       154        31  DCM       CL1             2.0273705936        2.0109834678        2.7274584178  CLST      31              1.0000000000
       155        31  DCM       CL2             4.3017576528        1.2605267227        4.4061328196  CLST      31              1.0000000000
       156        32  DCM       C               1.7477753653        5.7804349506        2.2110476069  CLST      32              1.0000000000
       157        32  DCM       H1              1.7071221711        6.8864683566        2.1312646045  CLST      32              1.0000000000
       158        32  DCM       H2              2.6775235302        5.4556691108        2.7241475738  CLST      32              1.0000000000
       159        32  DCM       CL1             1.7120695478        5.0739778838        0.5702166637  CLST      32              1.0000000000
       160        32  DCM       CL2             0.3360283424        5.2086866855        3.1463808954  CLST      32              1.0000000000
       161        33  DCM       C               8.7924453075       -9.5724048467       -3.1800677858  CLST      33              1.0000000000
       162        33  DCM       H1              8.8121055772       -9.0235697497       -4.1452526877  CLST      33              1.0000000000
       163        33  DCM       H2              9.3896763393      -10.5064739279       -3.2421627133  CLST      33              1.0000000000
       164        33  DCM       CL1             9.4782255756       -8.5259671097       -1.9028654430  CLST      33              1.0000000000
       165        33  DCM       CL2             7.1008520796       -9.9909563448       -2.7791933655  CLST      33              1.0000000000
       166        34  DCM       C               0.2183768246        5.9802532634       -9.6210890763  CLST      34              1.0000000000
       167        34  DCM       H1             -0.3099843400        5.5531387612      -10.4976234958  CLST      34              1.0000000000
       168        34  DCM       H2              1.3142658248        6.0263840529       -9.7976521774  CLST      34              1.0000000000
       169        34  DCM       CL1            -0.3918185917        7.6333448888       -9.3302445279  CLST      34              1.0000000000
       170        34  DCM       CL2            -0.1027657757        4.9557546417       -8.1920311057  CLST      34              1.0000000000
       171        35  DCM       C              11.3311500904       -1.6028464979        2.7819153440  CLST      35              1.0000000000
       172        35  DCM       H1             11.0655531452       -1.3432096057        1.7352098514  CLST      35              1.0000000000
       173        35  DCM       H2             12.3725626308       -1.9826603043        2.8474399904  CLST      35              1.0000000000
       174        35  DCM       CL1            11.1774419568       -0.1397345650        3.7977043093  CLST      35              1.0000000000
       175        35  DCM       CL2            10.2128236723       -2.8681463611        3.3692406463  CLST      35              1.0000000000
       176        36  DCM       C               7.2111203111       -2.9869360499       -8.5820083359  CLST      36              1.0000000000
       177        36  DCM       H1              6.8380358135       -4.0285763070       -8.6706676900  CLST      36              1.0000000000
       178        36  DCM       H2              6.4001076569       -2.2556769694       -8.7836044845  CLST      36              1.0000000000
       179        36  DCM       CL1             7.8274979432       -2.7263571473       -6.9240498431  CLST      36              1.0000000000
       180        36  DCM       CL2             8.5278464769       -2.7399511245       -9.7647467027  CLST      36              1.0000000000
       181        37  DCM       C               3.2159865617        2.3069460004       -9.0590331520  CLST      37              1.0000000000
       182        37  DCM       H1              4.1895116750        1.9252419139       -8.6878871019  CLST      37              1.0000000000
       183        37  DCM       H2              2.9016011594        1.7718848290       -9.9794079125  CLST      37              1.0000000000
       184        37  DCM       CL1             1.9764383041        2.0700719689       -7.7925063206  CLST      37              1.0000000000
       185        37  DCM       CL2             3.3826433409        4.0465810084       -9.4281353924  CLST      37              1.0000000000
       186        38  DCM       C               0.8962103604       -6.3566849107       -2.6452212338  CLST      38              1.0000000000
       187        38  DCM       H1              0.2067140199       -5.6636573806       -2.1183182564  CLST      38              1.0000000000
       188        38  DCM       H2              1.9066705208       -6.3375341348       -2.1870044918  CLST      38              1.0000000000
       189        38  DCM       CL1             0.2501169000       -8.0173315579       -2.5602980221  CLST      38              1.0000000000
       190        38  DCM       CL2             1.0253579386       -5.8578577138       -4.3496447357  CLST      38              1.0000000000
       191        39  DCM       C              -8.9353840249        6.2705274468       -5.9617072036  CLST      39              1.0000000000
       192        39  DCM       H1             -8.1693239728        7.0580391852       -5.8010299723  CLST      39              1.0000000000
       193        39  DCM       H2             -9.2719468697        5.8364639891       -4.9965150095  CLST      39              1.0000000000
       194        39  DCM       CL1           -10.3418619687        6.9903693292       -6.7973221628  CLST      39              1.0000000000
       195        39  DCM       CL2            -8.2329630435        4.9718974520       -6.9675659256  CLST      39              1.0000000000
       196        40  DCM       C              -1.7250897635       -1.6110823364        0.0068893364  CLST      40              1.0000000000
       197        40  DCM       H1             -2.8012478164       -1.3711865806       -0.1206187434  CLST      40              1.0000000000
       198        40  DCM       H2             -1.4578248692       -1.6966245872        1.0823403539  CLST      40              1.0000000000
       199        40  DCM       CL1            -1.3824800853       -3.1661738876       -0.8044634548  CLST      40              1.0000000000
       200        40  DCM       CL2            -0.7482658781       -0.3096129670       -0.7337288474  CLST      40              1.0000000000
       201        41  DCM       C               1.6399573731        5.7938979165        6.5887220216  CLST      41              1.0000000000
       202        41  DCM       H1              2.3330420395        4.9846897789        6.8984970951  CLST      41              1.0000000000
       203        41  DCM       H2              0.7434359228        5.3827524828        6.0776327623  CLST      41              1.0000000000
       204        41  DCM       CL1             2.4950530696        6.8935941652        5.4722078577  CLST      41              1.0000000000
       205        41  DCM       CL2             1.1122910254        6.6902682365        8.0400965302  CLST      41              1.0000000000
       206        42  DCM       C              -8.0701321526        2.6253447920       -3.9623827981  CLST      42              1.0000000000
       207        42  DCM       H1             -7.3801233148        3.2819783757       -4.5321234378  CLST      42              1.0000000000
       208        42  DCM       H2             -7.5050948374        1.8946327693       -3.3458827028  CLST      42              1.0000000000
       209        42  DCM       CL1            -9.0811440703        3.6370220581       -2.8912442375  CLST      42              1.0000000000
       210        42  DCM       CL2            -9.1077520426        1.7366625994       -5.1123017337  CLST      42              1.0000000000
       211        43  DCM       C              -0.5043855885        1.0927390311      -10.3935861033  CLST      43              1.0000000000
       212        43  DCM       H1             -1.4552003766        0.7789955793      -10.8739451622  CLST      43              1.0000000000
       213        43  DCM       H2             -0.6454202628        1.2653480037       -9.3056644210  CLST      43              1.0000000000
       214        43  DCM       CL1             0.7192893804       -0.1882290486      -10.6304204569  CLST      43              1.0000000000
       215        43  DCM       CL2             0.0578057594        2.6097207131      -11.1533944374  CLST      43              1.0000000000
       216        44  DCM       C               9.8076920414       -5.0709307849        0.1235862249  CLST      44              1.0000000000
       217        44  DCM       H1              9.4822987089       -5.0323029127        1.1844471892  CLST      44              1.0000000000
       218        44  DCM       H2             10.4578179024       -5.9521117315       -0.0634688092  CLST      44              1.0000000000
       219        44  DCM       CL1             8.3660365086       -5.1826388294       -0.9245729465  CLST      44              1.0000000000
       220        44  DCM       CL2            10.7163377504       -3.5807007198       -0.2613968247  CLST      44              1.0000000000
       221        45  DCM       C              -1.2825781718       -7.0140246516       -6.6431725130  CLST      45              1.0000000000
       222        45  DCM       H1             -0.2480344617       -6.7587470248       -6.9521452765  CLST      45              1.0000000000
       223        45  DCM       H2             -1.6971233248       -6.2415722826       -5.9617601916  CLST      45              1.0000000000
       224        45  DCM       CL1            -1.2536165727       -8.5872235547       -5.7969649312  CLST      45              1.0000000000
       225        45  DCM       CL2            -2.3088912158       -7.1216117025       -8.1015205090  CLST      45              1.0000000000
       226        46  DCM       C               5.5284801160        8.3801980143        4.1864950580  CLST      46              1.0000000000
       227        46  DCM       H1              5.2450345202        7.8884400152        5.1414021251  CLST      46              1.0000000000
       228        46  DCM       H2              6.6053805702        8.6494738570        4.1838222531  CLST      46              1.0000000000
       229        46  DCM       CL1             5.1967389993        7.2661193760        2.8296097409  CLST      46              1.0000000000
       230        46  DCM       CL2             4.5568960849        9.8650770641        3.9874111714  CLST      46              1.0000000000
       231        47  DCM       C              -3.1572938442       -6.2447249547       -2.8953032143  CLST      47              1.0000000000
       232        47  DCM       H1             -3.3981255991       -6.2097777625       -3.9777730245  CLST      47              1.0000000000
       233        47  DCM       H2             -2.1352480594       -5.8600314341       -2.7008146662  CLST      47              1.0000000000
       234        47  DCM       CL1            -4.3342794727       -5.2406044795       -2.0026689249  CLST      47              1.0000000000
       235        47  DCM       CL2            -3.2649524705       -7.9379291768       -2.3418725128  CLST      47              1.0000000000
       236        48  DCM       C              11.0243883449       -6.9474239339       -8.0302489821  CLST      48              1.0000000000
       237        48  DCM       H1             10.9035903371       -7.1557788233       -9.1145896903  CLST      48              1.0000000000
       238        48  DCM       H2             12.0949502256       -6.9678376342       -7.7355200649  CLST      48              1.0000000000
       239        48  DCM       CL1            10.1409691798       -8.1896799578       -7.0956597003  CLST      48              1.0000000000
       240        48  DCM       CL2            10.3569232848       -5.3283009885       -7.6725129139  CLST      48              1.0000000000
       241        49  DCM       C               4.1102677387       -5.2273816933        5.2256062248  CLST      49              1.0000000000
       242        49  DCM       H1              5.1567604369       -4.8867208623        5.3709866941  CLST      49              1.0000000000
       243        49  DCM       H2              4.0172178517       -5.8550080374        4.3147795225  CLST      49              1.0000000000
       244        49  DCM       CL1             3.0568754338       -3.7956680849        5.0555945896  CLST      49              1.0000000000
       245        49  DCM       CL2             3.6068574217       -6.1853705697        6.6473664801  CLST      49              1.0000000000
       246        50  DCM       C               1.2508933678       -0.4646048318        5.3781103651  CLST      50              1.0000000000
       247        50  DCM       H1              0.7014085221        0.4998234528        5.3635116618  CLST      50              1.0000000000
       248        50  DCM       H2              1.9609172771       -0.5318033790        4.5290305941  CLST      50              1.0000000000
       249        50  DCM       CL1             2.1657814234       -0.6050036273        6.9075868582  CLST      50              1.0000000000
       250        50  DCM       CL2             0.0795516770       -1.8020072386        5.2483221600  CLST      50              1.0000000000
       251        51  DCM       C               5.5010449964        0.3052035506       -6.3342319132  CLST      51              1.0000000000
       252        51  DCM       H1              5.1268763449        1.2769679801       -5.9495840038  CLST      51              1.0000000000
       253        51  DCM       H2              6.0173494372       -0.2686801063       -5.5349633966  CLST      51              1.0000000000
       254        51  DCM       CL1             4.1166192766       -0.6456930646       -6.9398556788  CLST      51              1.0000000000
       255        51  DCM       CL2             6.6500676029        0.6064991560       -7.6687036585  CLST      51              1.0000000000
       256        52  DCM       C               6.0227638942        2.5352090764        1.4721794154  CLST      52              1.0000000000
       257        52  DCM       H1              6.2370696122        2.2680870893        2.5265706386  CLST      52              1.0000000000
       258        52  DCM       H2              6.9639838717        2.6805661699        0.9033804082  CLST      52              1.0000000000
       259        52  DCM       CL1             5.0865493301        1.2175749851        0.7200531423  CLST      52              1.0000000000
       260        52  DCM       CL2             5.0680605008        4.0423373293        1.4282901935  CLST      52              1.0000000000
       261        53  DCM       C              -4.6486696335       -9.8441646376       -5.4002277175  CLST      53              1.0000000000
       262        53  DCM       H1             -3.8955781526      -10.1846213193       -6.1420857689  CLST      53              1.0000000000
       263        53  DCM       H2             -4.2557008006       -9.9261682557       -4.3659576618  CLST      53              1.0000000000
       264        53  DCM       CL1            -5.0569789453       -8.1360717287       -5.7232027759  CLST      53              1.0000000000
       265        53  DCM       CL2            -6.1127212366      -10.8576229019       -5.5474228929  CLST      53              1.0000000000
       266        54  DCM       C              -2.4519962151       -1.6693097422       -4.0893510450  CLST      54              1.0000000000
       267        54  DCM       H1             -2.5041893822       -1.0587028414       -5.0159081649  CLST      54              1.0000000000
       268        54  DCM       H2             -1.8730261592       -1.1435762369       -3.3025267298  CLST      54              1.0000000000
       269        54  DCM       CL1            -4.1079811641       -1.9670712005       -3.4873088266  CLST      54              1.0000000000
       270        54  DCM       CL2            -1.6516508946       -3.2257560631       -4.4541943178  CLST      54              1.0000000000
       271        55  DCM       C               4.0677736544       11.3100119545       10.9789772822  CLST      55              1.0000000000
       272        55  DCM       H1              3.2295662808       10.9176465030       10.3662701685  CLST      55              1.0000000000
       273        55  DCM       H2              3.7507913362       11.4733471472       12.0304543042  CLST      55              1.0000000000
       274        55  DCM       CL1             5.4105310609       10.1290506616       10.9581919319  CLST      55              1.0000000000
       275        55  DCM       CL2             4.6090474063       12.8665388490       10.2888020459  CLST      55              1.0000000000
       276        56  DCM       C               6.9200240937        4.1747795402       -7.8728233723  CLST      56              1.0000000000
       277        56  DCM       H1              6.4528672727        4.1170046203       -8.8803887404  CLST      56              1.0000000000
       278        56  DCM       H2              7.6299410494        3.3380744132       -7.7131016792  CLST      56              1.0000000000
       279        56  DCM       CL1             7.8221168956        5.7091648715       -7.7262241972  CLST      56              1.0000000000
       280        56  DCM       CL2             5.6432195579        4.0952510403       -6.6237973999  CLST      56              1.0000000000
       281        57  DCM       C              -1.6092969652      -11.2602835521       -1.9160790542  CLST      57              1.0000000000
       282        57  DCM       H1             -1.5958739201      -10.1723791518       -1.6983296895  CLST      57              1.0000000000
       283        57  DCM       H2             -2.4117199746      -11.7693294621       -1.3413600949  CLST      57              1.0000000000
       284        57  DCM       CL1            -1.8959716266      -11.5051095912       -3.6624814603  CLST      57              1.0000000000
       285        57  DCM       CL2            -0.0286171427      -11.9567479570       -1.4591216337  CLST      57              1.0000000000
       286        58  DCM       C               0.9224554270       -2.2764143673       -7.5054019677  CLST      58              1.0000000000
       287        58  DCM       H1              1.4434650769       -2.1420534855       -8.4768837218  CLST      58              1.0000000000
       288        58  DCM       H2              1.5478060282       -1.9198523014       -6.6620435410  CLST      58              1.0000000000
       289        58  DCM       CL1            -0.6072546970       -1.3556000116       -7.5217249176  CLST      58              1.0000000000
       290        58  DCM       CL2             0.5770952323       -4.0089620381       -7.2667390845  CLST      58              1.0000000000
       291        59  DCM       C              -2.1476184955       11.4561207354        8.0253863458  CLST      59              1.0000000000
       292        59  DCM       H1             -1.4664903261       12.1271643858        8.5901320191  CLST      59              1.0000000000
       293        59  DCM       H2             -3.1531807754       11.4186943991        8.4964228692  CLST      59              1.0000000000
       294        59  DCM       CL1            -2.3129579402       12.0644584914        6.3525981181  CLST      59              1.0000000000
       295        59  DCM       CL2            -1.4518358887        9.8110721559        8.0012287428  CLST      59              1.0000000000
       296        60  DCM       C              -7.9615937944        9.8931705154        3.9804713275  CLST      60              1.0000000000
       297        60  DCM       H1             -8.8156736859       10.6007110309        4.0375921879  CLST      60              1.0000000000
       298        60  DCM       H2             -7.0294222606       10.3604627367        4.3623211558  CLST      60              1.0000000000
       299        60  DCM       CL1            -8.3354041885        8.4504180992        4.9676607645  CLST      60              1.0000000000
       300        60  DCM       CL2            -7.7145360942        9.4132439134        2.2758414834  CLST      60              1.0000000000
       301        61  DCM       C               4.9307977060        1.9533522190        9.0010291224  CLST      61              1.0000000000
       302        61  DCM       H1              4.3977973096        2.0541208551        9.9700018735  CLST      61              1.0000000000
       303        61  DCM       H2              5.1563763243        0.8897297268        8.7781079548  CLST      61              1.0000000000
       304        61  DCM       CL1             3.8993857912        2.6140677133        7.6996409960  CLST      61              1.0000000000
       305        61  DCM       CL2             6.4662702107        2.8645351898        9.0848970719  CLST      61              1.0000000000
       306        62  DCM       C               4.6785861438       -2.8523203032        8.0691775114  CLST      62              1.0000000000
       307        62  DCM       H1              4.6543862976       -2.1695049290        7.1943493817  CLST      62              1.0000000000
       308        62  DCM       H2              3.8136348511       -3.5474567587        8.0543661670  CLST      62              1.0000000000
       309        62  DCM       CL1             4.6131527403       -1.8815210528        9.5674750739  CLST      62              1.0000000000
       310        62  DCM       CL2             6.1936835649       -3.7996139795        8.0198626018  CLST      62              1.0000000000
       311        63  DCM       C               8.4335186710       -9.4629418601        1.6511816495  CLST      63              1.0000000000
       312        63  DCM       H1              9.1093902461      -10.0057890130        0.9567355685  CLST      63              1.0000000000
       313        63  DCM       H2              8.0894802613      -10.1231410588        2.4754729899  CLST      63              1.0000000000
       314        63  DCM       CL1             9.3092596646       -8.0672568291        2.3445830554  CLST      63              1.0000000000
       315        63  DCM       CL2             7.0136767443       -8.8841203718        0.7384238043  CLST      63              1.0000000000
       316        64  DCM       C               8.6863199267        5.4245646732        1.3765290423  CLST      64              1.0000000000
       317        64  DCM       H1              9.3919021538        6.2803144380        1.4337616036  CLST      64              1.0000000000
       318        64  DCM       H2              7.8851708346        5.5132165185        2.1408730908  CLST      64              1.0000000000
       319        64  DCM       CL1             7.9421655890        5.3955223816       -0.2472059180  CLST      64              1.0000000000
       320        64  DCM       CL2             9.5901876090        3.9076606947        1.6503519227  CLST      64              1.0000000000
       321        65  DCM       C               5.2602012343       -9.4121206443        6.0543645388  CLST      65              1.0000000000
       322        65  DCM       H1              4.1721910049       -9.5450180031        5.8763521367  CLST      65              1.0000000000
       323        65  DCM       H2              5.4434620248       -8.8400695040        6.9888624620  CLST      65              1.0000000000
       324        65  DCM       CL1             6.0236273092      -11.0216133826        6.1960177001  CLST      65              1.0000000000
       325        65  DCM       CL2             5.9757522572       -8.5235939681        4.6777526455  CLST      65              1.0000000000
       326        66  DCM       C              -5.4426253526        2.0035690373       -6.7469883251  CLST      66              1.0000000000
       327        66  DCM       H1             -6.5233208929        1.9113260319       -6.9875925154  CLST      66              1.0000000000
       328        66  DCM       H2             -4.8106089883        1.6832816818       -7.6008692127  CLST      66              1.0000000000
       329        66  DCM       CL1            -5.0724747925        3.7077477269       -6.3646879373  CLST      66              1.0000000000
       330        66  DCM       CL2            -5.0696270867        0.9766029646       -5.3342551017  CLST      66              1.0000000000
       331        67  DCM       C              -7.0573458124      -10.0419082168       -1.9346127160  CLST      67              1.0000000000
       332        67  DCM       H1             -7.6976953676      -10.4747817937       -2.7323049377  CLST      67              1.0000000000
       333        67  DCM       H2             -7.5494640305      -10.1117591180       -0.9414023725  CLST      67              1.0000000000
       334        67  DCM       CL1            -5.5109554824      -10.9398981792       -1.8815763219  CLST      67              1.0000000000
       335        67  DCM       CL2            -6.7541583842       -8.3198792287       -2.3077804692  CLST      67              1.0000000000
       336        68  DCM       C              -3.9777975747        7.3178210449       -5.5641073721  CLST      68              1.0000000000
       337        68  DCM       H1             -4.1596265398        8.0897487864       -4.7868624900  CLST      68              1.0000000000
       338        68  DCM       H2             -3.9679733216        6.3002002109       -5.1214502370  CLST      68              1.0000000000
       339        68  DCM       CL1            -5.2781985679        7.4025498708       -6.7870567920  CLST      68              1.0000000000
       340        68  DCM       CL2            -2.3956658614        7.6276578949       -6.3333638020  CLST      68              1.0000000000
       341        69  DCM       C              -5.9861855094        3.3447252386      -11.9390929239  CLST      69              1.0000000000
       342        69  DCM       H1             -4.8836018723        3.2164070982      -11.9074632661  CLST      69              1.0000000000
       343        69  DCM       H2             -6.2660727265        4.2606864917      -12.5007908158  CLST      69              1.0000000000
       344        69  DCM       CL1            -6.6049570000        3.4733090221      -10.2672705404  CLST      69              1.0000000000
       345        69  DCM       CL2            -6.7149063594        1.9282065831      -12.7503960078  CLST      69              1.0000000000
       346        70  DCM       C               2.0432095331       -1.0031140694       -3.4666483840  CLST      70              1.0000000000
       347        70  DCM       H1              2.9446500764       -1.1326862541       -4.1006214700  CLST      70              1.0000000000
       348        70  DCM       H2              2.2706768202       -0.3758823715       -2.5804417782  CLST      70              1.0000000000
       349        70  DCM       CL1             0.7644440473       -0.2099925595       -4.4248512807  CLST      70              1.0000000000
       350        70  DCM       CL2             1.4738436493       -2.6033250155       -2.9136555804  CLST      70              1.0000000000
       351        71  DCM       C               8.5894543622        4.2141210941       -4.1601117851  CLST      71              1.0000000000
       352        71  DCM       H1              7.7889275548        4.8181574057       -4.6360108013  CLST      71              1.0000000000
       353        71  DCM       H2              8.4259264238        4.1307001663       -3.0650174380  CLST      71              1.0000000000
       354        71  DCM       CL1            10.1622101323        5.0081345182       -4.4554348680  CLST      71              1.0000000000
       355        71  DCM       CL2             8.5883794573        2.5771726430       -4.8789559194  CLST      71              1.0000000000
       356        72  DCM       C              -7.6682103548       -2.9537427552       -5.9982287367  CLST      72              1.0000000000
       357        72  DCM       H1             -8.6217900516       -3.1876053581       -5.4793108524  CLST      72              1.0000000000
       358        72  DCM       H2             -6.7960500279       -3.1479140350       -5.3391309705  CLST      72              1.0000000000
       359        72  DCM       CL1            -7.6682916102       -1.2295194740       -6.4604099974  CLST      72              1.0000000000
       360        72  DCM       CL2            -7.5373744299       -3.9705510847       -7.4632433431  CLST      72              1.0000000000
       361        73  DCM       C              -5.7593988361       -7.9557784453        4.5361265869  CLST      73              1.0000000000
       362        73  DCM       H1             -6.3978219599       -7.2666256762        5.1274772538  CLST      73              1.0000000000
       363        73  DCM       H2             -5.3465097526       -7.4422851951        3.6438671103  CLST      73              1.0000000000
       364        73  DCM       CL1            -4.4133489689       -8.5224788670        5.5668249260  CLST      73              1.0000000000
       365        73  DCM       CL2            -6.7388413392       -9.3497599009        3.9987649569  CLST      73              1.0000000000
       366        74  DCM       C              -0.4425041349        9.7435030171        4.2265758901  CLST      74              1.0000000000
       367        74  DCM       H1             -0.1672334268       10.4217883112        5.0609337087  CLST      74              1.0000000000
       368        74  DCM       H2             -1.3109531614       10.1422943077        3.6606717560  CLST      74              1.0000000000
       369        74  DCM       CL1             0.9526758157        9.5790841760        3.1236497172  CLST      74              1.0000000000
       370        74  DCM       CL2            -0.8691904160        8.1445402024        4.8947250470  CLST      74              1.0000000000
       371        75  DCM       C               1.7798064559        3.5323076995       -2.8119335831  CLST      75              1.0000000000
       372        75  DCM       H1              2.4292017360        4.3504979356       -2.4345985153  CLST      75              1.0000000000
       373        75  DCM       H2              0.7600775433        3.9122602930       -3.0302967390  CLST      75              1.0000000000
       374        75  DCM       CL1             1.6739772039        2.2510880582       -1.5703435046  CLST      75              1.0000000000
       375        75  DCM       CL2             2.4898033290        2.8615677553       -4.3094681682  CLST      75              1.0000000000
       376        76  DCM       C              -3.6988652784       -3.7580143675       -7.4845532145  CLST      76              1.0000000000
       377        76  DCM       H1             -2.5928651777       -3.8597483882       -7.4771267578  CLST      76              1.0000000000
       378        76  DCM       H2             -4.1323261338       -4.1493813418       -8.4291994351  CLST      76              1.0000000000
       379        76  DCM       CL1            -4.3749156207       -4.6819731896       -6.1156412840  CLST      76              1.0000000000
       380        76  DCM       CL2            -4.1261938288       -2.0321822821       -7.3150451063  CLST      76              1.0000000000
       381        77  DCM       C              -6.0317683634       -0.2990998523       -9.7967841695  CLST      77              1.0000000000
       382        77  DCM       H1             -6.7747550917        0.3513391254      -10.3005549044  CLST      77              1.0000000000
       383        77  DCM       H2             -6.1652737427       -0.2762586556       -8.6958302919  CLST      77              1.0000000000
       384        77  DCM       CL1            -6.2420359859       -1.9766409154      -10.3747904110  CLST      77              1.0000000000
       385        77  DCM       CL2            -4.3901382656        0.2823017833      -10.1948836655  CLST      77              1.0000000000
       386        78  DCM       C              -8.5161829518       -7.2256582551       -5.5657283339  CLST      78              1.0000000000
       387        78  DCM       H1             -8.1442614490       -7.3027434585       -6.6105034429  CLST      78              1.0000000000
       388        78  DCM       H2             -7.7084173000       -6.8988016311       -4.8787132130  CLST      78              1.0000000000
       389        78  DCM       CL1            -9.8482331056       -6.0354613426       -5.5008533328  CLST      78              1.0000000000
       390        78  DCM       CL2            -9.1094877908       -8.8282832918       -5.0396680047  CLST      78              1.0000000000
       391        79  DCM       C              10.3677479855        1.2818294945       -0.8969900835  CLST      79              1.0000000000
       392        79  DCM       H1             10.5345789832        1.3209956529        0.2003310854  CLST      79              1.0000000000
       393        79  DCM       H2             10.5290795051        0.2563288221       -1.2917839734  CLST      79              1.0000000000
       394        79  DCM       CL1             8.6885685893        1.7773034370       -1.2454290959  CLST      79              1.0000000000
       395        79  DCM       CL2            11.5016155777        2.4056258607       -1.6999925590  CLST      79              1.0000000000
       396        80  DCM       C               2.8026442469       -9.0390226308       -0.0561517759  CLST      80              1.0000000000
       397        80  DCM       H1              3.4033648920       -9.9719136415       -0.0355656686  CLST      80              1.0000000000
       398        80  DCM       H2              2.6498110276       -8.6918985662       -1.0987041185  CLST      80              1.0000000000
       399        80  DCM       CL1             1.2146178257       -9.3538514464        0.6933438944  CLST      80              1.0000000000
       400        80  DCM       CL2             3.6505057640       -7.7670725993        0.8654434456  CLST      80              1.0000000000
       401        81  DCM       C               0.5216844521       -4.0755209867        7.9217171678  CLST      81              1.0000000000
       402        81  DCM       H1              1.0091291557       -4.4369536554        6.9931030885  CLST      81              1.0000000000
       403        81  DCM       H2              0.5358603012       -2.9666691027        7.9734792842  CLST      81              1.0000000000
       404        81  DCM       CL1            -1.1745050400       -4.6380819805        7.9399922094  CLST      81              1.0000000000
       405        81  DCM       CL2             1.3972467402       -4.7362418668        9.3322630183  CLST      81              1.0000000000
       406        82  DCM       C               0.4263383957        8.8437746220       11.1127854886  CLST      82              1.0000000000
       407        82  DCM       H1             -0.2273673748        8.4858698311       11.9368248552  CLST      82              1.0000000000
       408        82  DCM       H2              0.0850438871        8.4490685736       10.1343309160  CLST      82              1.0000000000
       409        82  DCM       CL1             0.3771750592       10.6308441747       11.0603248509  CLST      82              1.0000000000
       410        82  DCM       CL2             2.0976061599        8.2913226062       11.4124457595  CLST      82              1.0000000000
       411        83  DCM       C               5.3762360203        3.2809152349       -2.0558960130  CLST      83              1.0000000000
       412        83  DCM       H1              6.2815941553        3.3714260670       -1.4237714369  CLST      83              1.0000000000
       413        83  DCM       H2              4.4622486147        3.2177922704       -1.4296749222  CLST      83              1.0000000000
       414        83  DCM       CL1             5.2635397118        4.7207463223       -3.1069406895  CLST      83              1.0000000000
       415        83  DCM       CL2             5.5116162738        1.7945526569       -3.0401857660  CLST      83              1.0000000000
       416        84  DCM       C              -3.9257197625      -10.1747442383        1.7870041323  CLST      84              1.0000000000
       417        84  DCM       H1             -4.0443939877       -9.9973568288        2.8763323429  CLST      84              1.0000000000
       418        84  DCM       H2             -4.3393482988      -11.1623432310        1.4928841297  CLST      84              1.0000000000
       419        84  DCM       CL1            -4.7928751097       -8.8960063320        0.8908165678  CLST      84              1.0000000000
       420        84  DCM       CL2            -2.1866372804      -10.1251901710        1.3837355433  CLST      84              1.0000000000
       421        85  DCM       C              -4.9325734167        7.3855849821        3.5096654793  CLST      85              1.0000000000
       422        85  DCM       H1             -5.6594813617        7.3043820730        4.3446768529  CLST      85              1.0000000000
       423        85  DCM       H2             -5.4362663407        7.2446678439        2.5298061952  CLST      85              1.0000000000
       424        85  DCM       CL1            -4.1804112960        9.0074639881        3.5478457251  CLST      85              1.0000000000
       425        85  DCM       CL2            -3.6782984138        6.1272143999        3.7081743550  CLST      85              1.0000000000
       426        86  DCM       C             -10.0402717895       -7.4105455603        4.4317274081  CLST      86              1.0000000000
       427        86  DCM       H1             -9.4113029352       -8.3226743045        4.4738594291  CLST      86              1.0000000000
       428        86  DCM       H2            -10.5925206570       -7.3518491264        3.4689503895  CLST      86              1.0000000000
       429        86  DCM       CL1           -11.2112235558       -7.4604526807        5.7820921623  CLST      86              1.0000000000
       430        86  DCM       CL2            -8.9888181633       -5.9733545111        4.5926817279  CLST      86              1.0000000000
       431        87  DCM       C               5.4159896578       -6.9203226889       -2.1945244075  CLST      87              1.0000000000
       432        87  DCM       H1              5.4760298628       -7.5798485596       -1.3065985335  CLST      87              1.0000000000
       433        87  DCM       H2              6.4119601628       -6.8235263378       -2.6752724704  CLST      87              1.0000000000
       434        87  DCM       CL1             4.2624841600       -7.6262541386       -3.3580175935  CLST      87              1.0000000000
       435        87  DCM       CL2             4.8422187626       -5.3071377754       -1.6905935932  CLST      87              1.0000000000
       436        88  DCM       C              -9.6205907089        1.3179612348      -10.3957021485  CLST      88              1.0000000000
       437        88  DCM       H1             -9.3028621155        0.3350389213      -10.8033433782  CLST      88              1.0000000000
       438        88  DCM       H2             -9.2068507927        2.1509263268      -11.0004731641  CLST      88              1.0000000000
       439        88  DCM       CL1           -11.4043265740        1.4139880404      -10.4256026469  CLST      88              1.0000000000
       440        88  DCM       CL2            -9.0327325615        1.4747263411       -8.7149377943  CLST      88              1.0000000000
       441        89  DCM       C              -5.5855191661        8.7218682137       10.9641258657  CLST      89              1.0000000000
       442        89  DCM       H1             -5.3118808883        7.7813754039       10.4405987571  CLST      89              1.0000000000
       443        89  DCM       H2             -5.8470932516        8.5261418838       12.0255444364  CLST      89              1.0000000000
       444        89  DCM       CL1            -4.1994986480        9.8511637082       10.9023853001  CLST      89              1.0000000000
       445        89  DCM       CL2            -6.9966967661        9.4499650890       10.1437569815  CLST      89              1.0000000000
       446        90  DCM       C              -7.7651994018       -9.8706083117        7.5785709620  CLST      90              1.0000000000
       447        90  DCM       H1             -6.7435791666      -10.1424575913        7.2359629600  CLST      90              1.0000000000
       448        90  DCM       H2             -7.9467773075      -10.2208933045        8.6163403357  CLST      90              1.0000000000
       449        90  DCM       CL1            -7.9429497418       -8.0930427139        7.5325326381  CLST      90              1.0000000000
       450        90  DCM       CL2            -8.9674799612      -10.6282586236        6.4930727077  CLST      90              1.0000000000
       451        91  DCM       C               1.9145801376      -10.3791341983       -4.4723470603  CLST      91              1.0000000000
       452        91  DCM       H1              2.0451925407       -9.2820436925       -4.5797173885  CLST      91              1.0000000000
       453        91  DCM       H2              0.8857891926      -10.6247236146       -4.1361533225  CLST      91              1.0000000000
       454        91  DCM       CL1             2.2089183910      -11.1554979327       -6.0546541547  CLST      91              1.0000000000
       455        91  DCM       CL2             3.0825535114      -10.9899374320       -3.2638029525  CLST      91              1.0000000000
       456        92  DCM       C              -1.8841335944        4.0384008185        0.5920254744  CLST      92              1.0000000000
       457        92  DCM       H1             -1.6937779663        5.0070676699        1.0981602088  CLST      92              1.0000000000
       458        92  DCM       H2             -1.2197787515        3.2420241929        0.9900923847  CLST      92              1.0000000000
       459        92  DCM       CL1            -3.5891451313        3.5761882067        0.8633314441  CLST      92              1.0000000000
       460        92  DCM       CL2            -1.5750625950        4.2341458630       -1.1572754101  CLST      92              1.0000000000
       461        93  DCM       C             -10.4272678016        5.5181052401      -11.6007210597  CLST      93              1.0000000000
       462        93  DCM       H1            -11.5175266222        5.4987720269      -11.8114306569  CLST      93              1.0000000000
       463        93  DCM       H2            -10.0188399741        6.5464459902      -11.6960873455  CLST      93              1.0000000000
       464        93  DCM       CL1            -9.5885322907        4.4477166538      -12.7615713523  CLST      93              1.0000000000
       465        93  DCM       CL2           -10.1491469041        4.9376366744       -9.9350984927  CLST      93              1.0000000000
       466        94  DCM       C               1.4862241803       -5.0639344691        1.9053350764  CLST      94              1.0000000000
       467        94  DCM       H1              1.1320442901       -6.1126553128        1.9905332311  CLST      94              1.0000000000
       468        94  DCM       H2              2.3988110918       -4.9012698221        2.5116378793  CLST      94              1.0000000000
       469        94  DCM       CL1             1.8598047437       -4.7198060697        0.1968245013  CLST      94              1.0000000000
       470        94  DCM       CL2             0.2001964368       -3.9620758779        2.4699042985  CLST      94              1.0000000000
       471        95  DCM       C              -0.9162961373        2.8612220641       -5.2916357617  CLST      95              1.0000000000
       472        95  DCM       H1             -0.7988823321        2.2529864571       -4.3695842421  CLST      95              1.0000000000
       473        95  DCM       H2              0.0671920783        3.1806334389       -5.6939594681  CLST      95              1.0000000000
       474        95  DCM       CL1            -1.7516047253        1.8918995562       -6.5370667191  CLST      95              1.0000000000
       475        95  DCM       CL2            -1.8823624467        4.3113107626       -4.9046409687  CLST      95              1.0000000000
       476        96  DCM       C              -0.4964814602       -1.9844077725       10.9496417878  CLST      96              1.0000000000
       477        96  DCM       H1             -0.9499461283       -2.5204671323       10.0898117402  CLST      96              1.0000000000
       478        96  DCM       H2             -0.2812580592       -2.6835749335       11.7853074599  CLST      96              1.0000000000
       479        96  DCM       CL1             1.0307021269       -1.2173943881       10.4237529490  CLST      96              1.0000000000
       480        96  DCM       CL2            -1.6388799269       -0.7327730216       11.5159293175  CLST      96              1.0000000000
       481        97  DCM       C               7.3687091081       -7.0042155563       -9.2775003337  CLST      97              1.0000000000
       482        97  DCM       H1              7.5526356352       -8.0914729972       -9.1450877315  CLST      97              1.0000000000
       483        97  DCM       H2              7.7575802455       -6.4280913946       -8.4133892423  CLST      97              1.0000000000
       484        97  DCM       CL1             8.1954165676       -6.4417991091      -10.7585033524  CLST      97              1.0000000000
       485        97  DCM       CL2             5.6096052269       -6.7203153318       -9.4147981890  CLST      97              1.0000000000
       486        98  DCM       C               7.5546408986        8.0250506905       -4.7682849587  CLST      98              1.0000000000
       487        98  DCM       H1              7.7323086154        9.1130406249       -4.9018730496  CLST      98              1.0000000000
       488        98  DCM       H2              8.2863324270        7.4259714546       -5.3498696920  CLST      98              1.0000000000
       489        98  DCM       CL1             7.7166821063        7.6174006960       -3.0369650372  CLST      98              1.0000000000
       490        98  DCM       CL2             5.9026108441        7.6353261259       -5.3256539643  CLST      98              1.0000000000
