* CHARMM CGENFF SD/ABNR BEFORE MLPOT (MM ONLY)
*  DATE:     6/28/26      1:58: 3      CREATED BY USER: boittier
*
       475  EXT
         1         1  DCM       C               0.1599108142        8.6911636493        5.7694267542  CLST      1               1.0000000000
         2         1  DCM       H1              0.7944711204        8.0671560884        5.1074467516  CLST      1               1.0000000000
         3         1  DCM       H2             -0.4052882550        8.0628518531        6.4898661164  CLST      1               1.0000000000
         4         1  DCM       CL1             1.2107228520        9.8154738228        6.6765069060  CLST      1               1.0000000000
         5         1  DCM       CL2            -0.9959559328        9.6106563634        4.7642462450  CLST      1               1.0000000000
         6         2  DCM       C              -8.1956496646       -0.8268490235       -2.3529957780  CLST      2               1.0000000000
         7         2  DCM       H1             -8.1201664809       -0.6221911695       -1.2656186687  CLST      2               1.0000000000
         8         2  DCM       H2             -9.0323626196       -1.5221517509       -2.5749452095  CLST      2               1.0000000000
         9         2  DCM       CL1            -8.4710888018        0.7143812209       -3.2142804135  CLST      2               1.0000000000
        10         2  DCM       CL2            -6.6667532064       -1.5659063368       -2.9038650693  CLST      2               1.0000000000
        11         3  DCM       C              10.1689461413       -0.2430922351        7.5023716295  CLST      3               1.0000000000
        12         3  DCM       H1              9.2006598480        0.2721818345        7.6705630280  CLST      3               1.0000000000
        13         3  DCM       H2             10.1806084833       -0.7558708433        6.5188507886  CLST      3               1.0000000000
        14         3  DCM       CL1            11.4887011946        0.9607981630        7.5417767838  CLST      3               1.0000000000
        15         3  DCM       CL2            10.4032135222       -1.4564526677        8.7925281006  CLST      3               1.0000000000
        16         4  DCM       C              -4.3962046868       -8.0675106230       -9.6633956462  CLST      4               1.0000000000
        17         4  DCM       H1             -3.7511568163       -8.7715180720      -10.2314427546  CLST      4               1.0000000000
        18         4  DCM       H2             -4.0013126573       -7.8996951324       -8.6392880144  CLST      4               1.0000000000
        19         4  DCM       CL1            -4.4532964613       -6.5045196917      -10.5288279227  CLST      4               1.0000000000
        20         4  DCM       CL2            -6.0417044647       -8.7538636796       -9.5469601689  CLST      4               1.0000000000
        21         5  DCM       C              -5.5395825154        9.4946247610       -3.1223832542  CLST      5               1.0000000000
        22         5  DCM       H1             -5.3920316711       10.5909189067       -3.2176520257  CLST      5               1.0000000000
        23         5  DCM       H2             -4.6156192435        8.9973851528       -2.7607664997  CLST      5               1.0000000000
        24         5  DCM       CL1            -6.8578945599        9.1842612775       -1.9557031935  CLST      5               1.0000000000
        25         5  DCM       CL2            -5.9731207208        8.8259982109       -4.7227439214  CLST      5               1.0000000000
        26         6  DCM       C              -7.7884324625       -8.6724898533       -3.1828644051  CLST      6               1.0000000000
        27         6  DCM       H1             -8.1918060091       -9.5798679279       -3.6775385276  CLST      6               1.0000000000
        28         6  DCM       H2             -8.3630671350       -7.7683902856       -3.4755754292  CLST      6               1.0000000000
        29         6  DCM       CL1            -7.8922042859       -8.8712134152       -1.4090951720  CLST      6               1.0000000000
        30         6  DCM       CL2            -6.0819168386       -8.4521408899       -3.6686472500  CLST      6               1.0000000000
        31         7  DCM       C               2.2193676300       -0.8457777755        9.9461218141  CLST      7               1.0000000000
        32         7  DCM       H1              1.3023478123       -0.2239325216       10.0212113049  CLST      7               1.0000000000
        33         7  DCM       H2              2.6646468025       -0.7763040520        8.9315991735  CLST      7               1.0000000000
        34         7  DCM       CL1             3.4190613463       -0.2683251662       11.1377374213  CLST      7               1.0000000000
        35         7  DCM       CL2             1.8025375672       -2.5523423741       10.2777928694  CLST      7               1.0000000000
        36         8  DCM       C              -9.6901359645       -0.7403504883        7.3151125380  CLST      8               1.0000000000
        37         8  DCM       H1             -9.1779450672       -1.6829115511        7.0267627079  CLST      8               1.0000000000
        38         8  DCM       H2            -10.1112709697       -0.8128072041        8.3399771178  CLST      8               1.0000000000
        39         8  DCM       CL1            -8.5102898725        0.6011400999        7.2641422144  CLST      8               1.0000000000
        40         8  DCM       CL2           -11.0178688778       -0.4216917024        6.1605901516  CLST      8               1.0000000000
        41         9  DCM       C              -8.6928225922      -10.4975677305       -7.3400244646  CLST      9               1.0000000000
        42         9  DCM       H1             -8.5130653824      -10.0635402632       -8.3451625902  CLST      9               1.0000000000
        43         9  DCM       H2             -9.1998989785      -11.4826492106       -7.4191644835  CLST      9               1.0000000000
        44         9  DCM       CL1            -7.1231971069      -10.7141582015       -6.5132838593  CLST      9               1.0000000000
        45         9  DCM       CL2            -9.7252934984       -9.3815046734       -6.3996478252  CLST      9               1.0000000000
        46        10  DCM       C              -8.2154084736      -11.4019294626      -11.3013311286  CLST      10              1.0000000000
        47        10  DCM       H1             -8.1510532071      -11.9087820784      -12.2874324828  CLST      10              1.0000000000
        48        10  DCM       H2             -7.8570516116      -10.3535702947      -11.3674489957  CLST      10              1.0000000000
        49        10  DCM       CL1            -9.9182809039      -11.3998074511      -10.7572740250  CLST      10              1.0000000000
        50        10  DCM       CL2            -7.2029564351      -12.2874814140      -10.1238860287  CLST      10              1.0000000000
        51        11  DCM       C              -9.1933650988       -9.6318313919        3.9296100193  CLST      11              1.0000000000
        52        11  DCM       H1             -9.4518595876      -10.6275903655        4.3492163953  CLST      11              1.0000000000
        53        11  DCM       H2             -9.3677598273       -9.6007118716        2.8331378578  CLST      11              1.0000000000
        54        11  DCM       CL1           -10.2098236302       -8.3890226326        4.7172109046  CLST      11              1.0000000000
        55        11  DCM       CL2            -7.4670375803       -9.2995910557        4.2535277755  CLST      11              1.0000000000
        56        12  DCM       C               6.7922149143       -7.3292693272        9.2741682394  CLST      12              1.0000000000
        57        12  DCM       H1              7.6065535854       -7.6067639938        9.9747706257  CLST      12              1.0000000000
        58        12  DCM       H2              7.1955504312       -7.0923545474        8.2667413785  CLST      12              1.0000000000
        59        12  DCM       CL1             5.6531406253       -8.6996030684        9.1322220512  CLST      12              1.0000000000
        60        12  DCM       CL2             5.9384235856       -5.8956826698        9.9129114716  CLST      12              1.0000000000
        61        13  DCM       C              -6.2379529747       -5.1471032126       -1.9149180955  CLST      13              1.0000000000
        62        13  DCM       H1             -5.9203291860       -4.4176756602       -1.1415441073  CLST      13              1.0000000000
        63        13  DCM       H2             -6.0708844125       -6.1904359205       -1.5702459093  CLST      13              1.0000000000
        64        13  DCM       CL1            -7.9807420703       -4.9228834699       -2.2514654950  CLST      13              1.0000000000
        65        13  DCM       CL2            -5.2910988772       -4.8633026928       -3.4050200199  CLST      13              1.0000000000
        66        14  DCM       C              -8.8651220185        5.6924070180       -7.5814317688  CLST      14              1.0000000000
        67        14  DCM       H1             -9.9572208006        5.5154484655       -7.6755923671  CLST      14              1.0000000000
        68        14  DCM       H2             -8.3812758012        4.8881774411       -6.9892437013  CLST      14              1.0000000000
        69        14  DCM       CL1            -8.1369065962        5.7332545820       -9.2131445280  CLST      14              1.0000000000
        70        14  DCM       CL2            -8.5942174254        7.2565730636       -6.7619846199  CLST      14              1.0000000000
        71        15  DCM       C              -9.5059486834       -2.6962164665        0.7303407811  CLST      15              1.0000000000
        72        15  DCM       H1             -9.9200073391       -3.3565755273        1.5208656323  CLST      15              1.0000000000
        73        15  DCM       H2             -9.8955880105       -2.9753987911       -0.2681386735  CLST      15              1.0000000000
        74        15  DCM       CL1            -9.9630457307       -1.0029275273        1.0869533796  CLST      15              1.0000000000
        75        15  DCM       CL2            -7.7253581240       -2.8530792845        0.7196742005  CLST      15              1.0000000000
        76        16  DCM       C               5.1312443393       -4.2228847675        1.0568977624  CLST      16              1.0000000000
        77        16  DCM       H1              5.9736704489       -4.9462898152        1.0293136460  CLST      16              1.0000000000
        78        16  DCM       H2              4.8327039818       -4.0050169257        2.1035605707  CLST      16              1.0000000000
        79        16  DCM       CL1             3.7354073196       -4.9037613550        0.1765491717  CLST      16              1.0000000000
        80        16  DCM       CL2             5.6442399291       -2.7086598864        0.2650702126  CLST      16              1.0000000000
        81        17  DCM       C               4.6085083926        3.0250634367        3.0479183616  CLST      17              1.0000000000
        82        17  DCM       H1              5.6134570627        3.4189353740        2.7903922939  CLST      17              1.0000000000
        83        17  DCM       H2              3.8662964371        3.2996511925        2.2703393962  CLST      17              1.0000000000
        84        17  DCM       CL1             4.6950432492        1.2482133819        3.1738642214  CLST      17              1.0000000000
        85        17  DCM       CL2             4.0956582687        3.7035419831        4.6155500485  CLST      17              1.0000000000
        86        18  DCM       C              -4.6658883589        5.2168186960       -7.7233498494  CLST      18              1.0000000000
        87        18  DCM       H1             -5.2486522810        4.7528085123       -8.5468471872  CLST      18              1.0000000000
        88        18  DCM       H2             -3.6447090904        4.7852704825       -7.6635066098  CLST      18              1.0000000000
        89        18  DCM       CL1            -4.5411260637        6.9743732538       -8.0188539967  CLST      18              1.0000000000
        90        18  DCM       CL2            -5.5110410054        4.9267545053       -6.1772690150  CLST      18              1.0000000000
        91        19  DCM       C               5.3589122900        8.5580285895       -4.7275227390  CLST      19              1.0000000000
        92        19  DCM       H1              6.2686587525        9.1694464818       -4.5522871681  CLST      19              1.0000000000
        93        19  DCM       H2              5.2768477908        8.2530893530       -5.7915018839  CLST      19              1.0000000000
        94        19  DCM       CL1             5.4421427737        7.0934402445       -3.7048611192  CLST      19              1.0000000000
        95        19  DCM       CL2             3.9250261404        9.5254512353       -4.2824995246  CLST      19              1.0000000000
        96        20  DCM       C              -5.1363413759        1.4307868006        6.4490719038  CLST      20              1.0000000000
        97        20  DCM       H1             -5.6519482000        0.4751840721        6.2196397482  CLST      20              1.0000000000
        98        20  DCM       H2             -5.1915955046        1.6649145895        7.5331325859  CLST      20              1.0000000000
        99        20  DCM       CL1            -3.4189480854        1.2963126807        5.9702883029  CLST      20              1.0000000000
       100        20  DCM       CL2            -5.9297499805        2.7430107262        5.5311353215  CLST      20              1.0000000000
       101        21  DCM       C               6.8175008437        1.5226140755       -3.3574862844  CLST      21              1.0000000000
       102        21  DCM       H1              6.2905125583        2.1122874993       -2.5762202579  CLST      21              1.0000000000
       103        21  DCM       H2              6.7338274607        2.0104782406       -4.3484043207  CLST      21              1.0000000000
       104        21  DCM       CL1             8.5440503921        1.3871665166       -2.9173224129  CLST      21              1.0000000000
       105        21  DCM       CL2             6.0906153916       -0.1059327745       -3.4581250341  CLST      21              1.0000000000
       106        22  DCM       C              -1.5557195912        4.3823600147       -1.6036982828  CLST      22              1.0000000000
       107        22  DCM       H1             -1.3985376315        5.3538704229       -2.1165029535  CLST      22              1.0000000000
       108        22  DCM       H2             -1.7695397044        4.5275457883       -0.5247719023  CLST      22              1.0000000000
       109        22  DCM       CL1            -2.9439898142        3.5531392501       -2.3548535475  CLST      22              1.0000000000
       110        22  DCM       CL2            -0.0863142719        3.3819602601       -1.7860838810  CLST      22              1.0000000000
       111        23  DCM       C               9.6556651582        2.0111734349        4.3990633021  CLST      23              1.0000000000
       112        23  DCM       H1              9.9079597674        0.9304281004        4.3901664851  CLST      23              1.0000000000
       113        23  DCM       H2              9.9871262028        2.4934687565        5.3430792419  CLST      23              1.0000000000
       114        23  DCM       CL1            10.4614083039        2.8119467187        3.0203567047  CLST      23              1.0000000000
       115        23  DCM       CL2             7.8875731420        2.1930437601        4.2464726903  CLST      23              1.0000000000
       116        24  DCM       C              11.1928189765       -2.8752084236        3.8960464018  CLST      24              1.0000000000
       117        24  DCM       H1             10.3936592618       -2.8430383141        3.1257183345  CLST      24              1.0000000000
       118        24  DCM       H2             12.0065724373       -3.5667782992        3.5931240132  CLST      24              1.0000000000
       119        24  DCM       CL1            11.8747050472       -1.2358624231        4.1084988071  CLST      24              1.0000000000
       120        24  DCM       CL2            10.4897772704       -3.4425737231        5.4381335939  CLST      24              1.0000000000
       121        25  DCM       C               2.6032335366        0.1550825531       -4.6187610674  CLST      25              1.0000000000
       122        25  DCM       H1              1.6580051179        0.0607997782       -5.1920845120  CLST      25              1.0000000000
       123        25  DCM       H2              3.1570397536       -0.8060222885       -4.6043449766  CLST      25              1.0000000000
       124        25  DCM       CL1             3.6225559958        1.4003658923       -5.3948379223  CLST      25              1.0000000000
       125        25  DCM       CL2             2.2232368799        0.6314295548       -2.9385926875  CLST      25              1.0000000000
       126        26  DCM       C              -2.2481572238       -3.4337231398        3.8662447584  CLST      26              1.0000000000
       127        26  DCM       H1             -3.1476666614       -3.6240620260        4.4870094220  CLST      26              1.0000000000
       128        26  DCM       H2             -1.4625321237       -4.1921227994        4.0632833235  CLST      26              1.0000000000
       129        26  DCM       CL1            -1.6132656196       -1.8111525847        4.2604735063  CLST      26              1.0000000000
       130        26  DCM       CL2            -2.7096561003       -3.5009271470        2.1407251338  CLST      26              1.0000000000
       131        27  DCM       C              -2.0447249198        4.6938799412        8.4844611759  CLST      27              1.0000000000
       132        27  DCM       H1             -1.5150418764        5.4978685942        7.9316984895  CLST      27              1.0000000000
       133        27  DCM       H2             -2.1142226038        4.9325495013        9.5667038886  CLST      27              1.0000000000
       134        27  DCM       CL1            -3.6941194063        4.5223602927        7.8215336739  CLST      27              1.0000000000
       135        27  DCM       CL2            -1.1523692190        3.1592543753        8.2810755121  CLST      27              1.0000000000
       136        28  DCM       C             -10.3589384367        3.8634831536        0.9860134947  CLST      28              1.0000000000
       137        28  DCM       H1            -10.8421115908        2.9102436963        1.2873616312  CLST      28              1.0000000000
       138        28  DCM       H2             -9.2750463258        3.8521910964        1.2236956988  CLST      28              1.0000000000
       139        28  DCM       CL1           -10.5670832584        4.0923005203       -0.7743584325  CLST      28              1.0000000000
       140        28  DCM       CL2           -11.1261185731        5.2137012241        1.8704437729  CLST      28              1.0000000000
       141        29  DCM       C               1.5867633986       -8.2386268803       -5.8834523648  CLST      29              1.0000000000
       142        29  DCM       H1              1.3446570552       -7.4965958156       -6.6719394354  CLST      29              1.0000000000
       143        29  DCM       H2              1.4504807103       -9.2760004966       -6.2548168403  CLST      29              1.0000000000
       144        29  DCM       CL1             3.2887120275       -8.0199053796       -5.3818971410  CLST      29              1.0000000000
       145        29  DCM       CL2             0.4990063407       -7.9672606962       -4.4908943089  CLST      29              1.0000000000
       146        30  DCM       C              -9.0977514216       -0.4298434693       -9.6001677631  CLST      30              1.0000000000
       147        30  DCM       H1             -9.5365048336       -0.6628925997       -8.6083491011  CLST      30              1.0000000000
       148        30  DCM       H2             -9.1157669489        0.6625842773       -9.7979415090  CLST      30              1.0000000000
       149        30  DCM       CL1            -7.4045004495       -0.9989826193       -9.6375289913  CLST      30              1.0000000000
       150        30  DCM       CL2           -10.0487451744       -1.2605620776      -10.8676864914  CLST      30              1.0000000000
       151        31  DCM       C               2.2713057135       -7.6494700867        7.7464624254  CLST      31              1.0000000000
       152        31  DCM       H1              1.2035524968       -7.7404385151        7.4549550906  CLST      31              1.0000000000
       153        31  DCM       H2              2.5063388994       -8.3002881965        8.6157840677  CLST      31              1.0000000000
       154        31  DCM       CL1             3.2926073372       -8.1371642875        6.3623137607  CLST      31              1.0000000000
       155        31  DCM       CL2             2.6100933343       -5.9504292787        8.1879224899  CLST      31              1.0000000000
       156        32  DCM       C              -2.8197275964        4.5894263519        4.1473782976  CLST      32              1.0000000000
       157        32  DCM       H1             -3.6774265603        4.4113159497        4.8276392826  CLST      32              1.0000000000
       158        32  DCM       H2             -2.2999478254        3.6401067379        3.9035834243  CLST      32              1.0000000000
       159        32  DCM       CL1            -3.4218538950        5.3224130690        2.6360070272  CLST      32              1.0000000000
       160        32  DCM       CL2            -1.6675841857        5.7000005810        4.9354786026  CLST      32              1.0000000000
       161        33  DCM       C               8.8045821013        3.3059319791        8.8378115920  CLST      33              1.0000000000
       162        33  DCM       H1              9.7488675185        3.4533076260        8.2699332826  CLST      33              1.0000000000
       163        33  DCM       H2              8.4391217594        4.2646723641        9.2583095365  CLST      33              1.0000000000
       164        33  DCM       CL1             7.5598705457        2.6414548729        7.7403573372  CLST      33              1.0000000000
       165        33  DCM       CL2             9.1019964806        2.1624470132       10.1792339377  CLST      33              1.0000000000
       166        34  DCM       C               2.6761330448       -4.5387651607       -8.9266920680  CLST      34              1.0000000000
       167        34  DCM       H1              2.8795250274       -4.3345678867       -7.8542061696  CLST      34              1.0000000000
       168        34  DCM       H2              1.8510629125       -3.9003166266       -9.3043969717  CLST      34              1.0000000000
       169        34  DCM       CL1             4.1546190388       -4.2029551945       -9.8749527443  CLST      34              1.0000000000
       170        34  DCM       CL2             2.2153919931       -6.2551075352       -9.1139529854  CLST      34              1.0000000000
       171        35  DCM       C               2.9301992798       -9.5215732298       -1.9704860291  CLST      35              1.0000000000
       172        35  DCM       H1              2.5752056304       -9.9945885476       -1.0311454244  CLST      35              1.0000000000
       173        35  DCM       H2              2.2817853211       -9.7984430332       -2.8283036868  CLST      35              1.0000000000
       174        35  DCM       CL1             2.9053263744       -7.7448125862       -1.7740100287  CLST      35              1.0000000000
       175        35  DCM       CL2             4.5966441327      -10.0739315365       -2.3053523399  CLST      35              1.0000000000
       176        36  DCM       C               6.9908318285        4.5540681402       -5.7715776792  CLST      36              1.0000000000
       177        36  DCM       H1              6.3947800697        4.4299008259       -4.8423437291  CLST      36              1.0000000000
       178        36  DCM       H2              6.8650367880        5.5738513026       -6.1907765803  CLST      36              1.0000000000
       179        36  DCM       CL1             8.7171938347        4.2848936701       -5.3988557075  CLST      36              1.0000000000
       180        36  DCM       CL2             6.4436625465        3.3568026785       -6.9804849301  CLST      36              1.0000000000
       181        37  DCM       C             -10.3304277874        3.0461175351        4.9184512156  CLST      37              1.0000000000
       182        37  DCM       H1            -11.3042366044        3.1938358204        4.4056456620  CLST      37              1.0000000000
       183        37  DCM       H2            -10.4615800347        2.5055099545        5.8791219756  CLST      37              1.0000000000
       184        37  DCM       CL1            -9.2522020433        2.0950785162        3.8560288845  CLST      37              1.0000000000
       185        37  DCM       CL2            -9.6028962097        4.6433159534        5.2524927721  CLST      37              1.0000000000
       186        38  DCM       C              -6.1570945768       -5.8821303122        5.5050559127  CLST      38              1.0000000000
       187        38  DCM       H1             -5.9185029481       -6.8790251509        5.0775439342  CLST      38              1.0000000000
       188        38  DCM       H2             -5.5438575293       -5.6775306803        6.4072337582  CLST      38              1.0000000000
       189        38  DCM       CL1            -5.8298670029       -4.6283827471        4.2778499476  CLST      38              1.0000000000
       190        38  DCM       CL2            -7.8826198573       -5.8358561204        5.9579546151  CLST      38              1.0000000000
       191        39  DCM       C              -8.3041454475       -8.9279287700        8.0916935536  CLST      39              1.0000000000
       192        39  DCM       H1             -8.8493629047       -8.1865314447        7.4707457250  CLST      39              1.0000000000
       193        39  DCM       H2             -8.5490024516       -8.8042668131        9.1677775776  CLST      39              1.0000000000
       194        39  DCM       CL1            -8.7734807973      -10.5731655394        7.5730483919  CLST      39              1.0000000000
       195        39  DCM       CL2            -6.5450059447       -8.6986171031        7.8651923652  CLST      39              1.0000000000
       196        40  DCM       C              -7.5131712269       -4.6359545801      -10.0209652397  CLST      40              1.0000000000
       197        40  DCM       H1             -6.7058613233       -4.0698783643       -9.5082980520  CLST      40              1.0000000000
       198        40  DCM       H2             -7.2941009862       -5.7238089468      -10.0304241906  CLST      40              1.0000000000
       199        40  DCM       CL1            -9.0564820446       -4.3614415345       -9.1616910235  CLST      40              1.0000000000
       200        40  DCM       CL2            -7.6436887250       -4.0589306099      -11.7069953534  CLST      40              1.0000000000
       201        41  DCM       C               2.9192615547        4.3701231123       -7.5768989770  CLST      41              1.0000000000
       202        41  DCM       H1              3.5033514236        3.4432328096       -7.3986404632  CLST      41              1.0000000000
       203        41  DCM       H2              1.8527042006        4.2218185350       -7.3138223414  CLST      41              1.0000000000
       204        41  DCM       CL1             3.5914312734        5.6869925382       -6.5733461258  CLST      41              1.0000000000
       205        41  DCM       CL2             3.0403833002        4.8021432652       -9.3059080450  CLST      41              1.0000000000
       206        42  DCM       C               4.0752402780        1.6549272908        7.6557943761  CLST      42              1.0000000000
       207        42  DCM       H1              4.4661121245        1.3382319497        8.6461689632  CLST      42              1.0000000000
       208        42  DCM       H2              4.6682775628        2.4969493791        7.2441665279  CLST      42              1.0000000000
       209        42  DCM       CL1             4.1619525828        0.2751779665        6.5244784774  CLST      42              1.0000000000
       210        42  DCM       CL2             2.3783747400        2.1790896148        7.8407862853  CLST      42              1.0000000000
       211        43  DCM       C              -3.6741088238        1.8721320064       -5.2913934006  CLST      43              1.0000000000
       212        43  DCM       H1             -2.8900593007        1.2012609735       -4.8808054712  CLST      43              1.0000000000
       213        43  DCM       H2             -3.3768304598        2.9365663086       -5.1932415149  CLST      43              1.0000000000
       214        43  DCM       CL1            -3.9277584586        1.5037140581       -7.0206931434  CLST      43              1.0000000000
       215        43  DCM       CL2            -5.1922225776        1.6112631340       -4.3883731603  CLST      43              1.0000000000
       216        44  DCM       C              -8.1822048077       -6.2033405942        2.0909598146  CLST      44              1.0000000000
       217        44  DCM       H1             -8.1313546746       -5.1482518780        2.4279657366  CLST      44              1.0000000000
       218        44  DCM       H2             -8.4170417243       -6.8746174616        2.9408337616  CLST      44              1.0000000000
       219        44  DCM       CL1            -9.4575619666       -6.3633917593        0.8481897578  CLST      44              1.0000000000
       220        44  DCM       CL2            -6.6026978303       -6.6697194465        1.3978104333  CLST      44              1.0000000000
       221        45  DCM       C              -6.8578988692        2.9973528621       -0.7052036453  CLST      45              1.0000000000
       222        45  DCM       H1             -6.5959920077        2.5608203567       -1.6920894932  CLST      45              1.0000000000
       223        45  DCM       H2             -7.6696602403        3.7471855837       -0.8074804910  CLST      45              1.0000000000
       224        45  DCM       CL1            -7.3954709575        1.6978907550        0.3965581206  CLST      45              1.0000000000
       225        45  DCM       CL2            -5.4170881481        3.8045318994       -0.0287334229  CLST      45              1.0000000000
       226        46  DCM       C               7.0292531404       -0.2624385489       -7.0726084585  CLST      46              1.0000000000
       227        46  DCM       H1              6.9657189975        0.0091058710       -8.1482280425  CLST      46              1.0000000000
       228        46  DCM       H2              6.1833157142        0.1741109253       -6.5018016077  CLST      46              1.0000000000
       229        46  DCM       CL1             6.9794670952       -2.0420871503       -6.9177569289  CLST      46              1.0000000000
       230        46  DCM       CL2             8.5663401465        0.3646234703       -6.4129380089  CLST      46              1.0000000000
       231        47  DCM       C              -7.8334096015        1.8978810186       -6.7187811978  CLST      47              1.0000000000
       232        47  DCM       H1             -7.5097806530        0.8642160511       -6.4784523564  CLST      47              1.0000000000
       233        47  DCM       H2             -7.4781282357        2.6116810418       -5.9469664902  CLST      47              1.0000000000
       234        47  DCM       CL1            -7.1522842587        2.3699447501       -8.3008146377  CLST      47              1.0000000000
       235        47  DCM       CL2            -9.6180540090        1.9528377608       -6.7854594411  CLST      47              1.0000000000
       236        48  DCM       C              -2.9353339672        6.9742959202       -4.5001678893  CLST      48              1.0000000000
       237        48  DCM       H1             -3.3384163072        7.5344820358       -5.3701612090  CLST      48              1.0000000000
       238        48  DCM       H2             -3.7514372723        6.6334922887       -3.8307581628  CLST      48              1.0000000000
       239        48  DCM       CL1            -1.8360547133        8.0431603735       -3.5822569719  CLST      48              1.0000000000
       240        48  DCM       CL2            -2.0448312157        5.5471382937       -5.0958157429  CLST      48              1.0000000000
       241        49  DCM       C              -4.3535119187        8.1072949851        5.4767986124  CLST      49              1.0000000000
       242        49  DCM       H1             -3.6591566369        7.9700748187        4.6210978541  CLST      49              1.0000000000
       243        49  DCM       H2             -4.8958050220        9.0735034503        5.4009466827  CLST      49              1.0000000000
       244        49  DCM       CL1            -5.5404052056        6.7720939568        5.4809471808  CLST      49              1.0000000000
       245        49  DCM       CL2            -3.4171003474        8.0872113853        6.9994441941  CLST      49              1.0000000000
       246        50  DCM       C              -7.1619894008       -2.6749401292       -6.2484792411  CLST      50              1.0000000000
       247        50  DCM       H1             -6.9750515108       -3.3381064055       -5.3775456429  CLST      50              1.0000000000
       248        50  DCM       H2             -7.2289208367       -3.2592150389       -7.1880657222  CLST      50              1.0000000000
       249        50  DCM       CL1            -8.7020058050       -1.8058839997       -5.9959155856  CLST      50              1.0000000000
       250        50  DCM       CL2            -5.8140407302       -1.5119488856       -6.3901105881  CLST      50              1.0000000000
       251        51  DCM       C             -10.6250950883       -3.8377328906        4.5344275078  CLST      51              1.0000000000
       252        51  DCM       H1            -10.9496277841       -2.8181333205        4.2401504569  CLST      51              1.0000000000
       253        51  DCM       H2             -9.5282682005       -3.9592981878        4.4075146362  CLST      51              1.0000000000
       254        51  DCM       CL1           -11.0458115657       -4.1135098125        6.2493925400  CLST      51              1.0000000000
       255        51  DCM       CL2           -11.4626972092       -5.0348953426        3.5062151328  CLST      51              1.0000000000
       256        52  DCM       C               9.6463066777        4.8882836958       -1.7532742739  CLST      52              1.0000000000
       257        52  DCM       H1             10.0956860918        4.6396850129       -2.7389633490  CLST      52              1.0000000000
       258        52  DCM       H2              9.9721763487        5.8896743107       -1.4075175573  CLST      52              1.0000000000
       259        52  DCM       CL1            10.1661209597        3.6680523631       -0.5548724263  CLST      52              1.0000000000
       260        52  DCM       CL2             7.8658837184        4.8794880021       -1.9073099840  CLST      52              1.0000000000
       261        53  DCM       C               0.1339682710        6.6958680892       -7.6891622225  CLST      53              1.0000000000
       262        53  DCM       H1              0.4757657873        6.3632722195       -6.6865247437  CLST      53              1.0000000000
       263        53  DCM       H2              0.9946305132        6.9895484840       -8.3263995458  CLST      53              1.0000000000
       264        53  DCM       CL1            -0.7437713798        5.3509535042       -8.4763650031  CLST      53              1.0000000000
       265        53  DCM       CL2            -0.9527496815        8.1011323116       -7.4926310570  CLST      53              1.0000000000
       266        54  DCM       C               6.2497020039        8.4762231260       -0.4418841102  CLST      54              1.0000000000
       267        54  DCM       H1              6.7162166611        7.6127775410       -0.9537568373  CLST      54              1.0000000000
       268        54  DCM       H2              6.7022654604        8.6397244364        0.5607064731  CLST      54              1.0000000000
       269        54  DCM       CL1             6.4842062986        9.9475689037       -1.4336759251  CLST      54              1.0000000000
       270        54  DCM       CL2             4.5029354313        8.1606601530       -0.2466144504  CLST      54              1.0000000000
       271        55  DCM       C               7.9873271360      -10.0515935123        6.4951175144  CLST      55              1.0000000000
       272        55  DCM       H1              7.4668862001      -10.5527903640        7.3388783885  CLST      55              1.0000000000
       273        55  DCM       H2              8.4661834709      -10.7957322508        5.8240952120  CLST      55              1.0000000000
       274        55  DCM       CL1             6.7954724932       -9.1041460983        5.5593206542  CLST      55              1.0000000000
       275        55  DCM       CL2             9.2464765763       -8.9637216250        7.1493538432  CLST      55              1.0000000000
       276        56  DCM       C               3.3883744272       -4.4824585851       -3.8417202562  CLST      56              1.0000000000
       277        56  DCM       H1              3.0274653231       -4.1923894012       -2.8322803032  CLST      56              1.0000000000
       278        56  DCM       H2              3.8557416480       -5.4900894044       -3.8216148009  CLST      56              1.0000000000
       279        56  DCM       CL1             2.0070796194       -4.4969632078       -4.9769430062  CLST      56              1.0000000000
       280        56  DCM       CL2             4.6011252547       -3.2920537808       -4.3918278553  CLST      56              1.0000000000
       281        57  DCM       C               2.1433221669       -1.4814169713        1.1690823883  CLST      57              1.0000000000
       282        57  DCM       H1              2.4175365749       -0.4600571316        0.8327840012  CLST      57              1.0000000000
       283        57  DCM       H2              2.5249214153       -2.2458858219        0.4612041711  CLST      57              1.0000000000
       284        57  DCM       CL1             2.8456639883       -1.7711087067        2.7886797921  CLST      57              1.0000000000
       285        57  DCM       CL2             0.3620923260       -1.6004112454        1.2493210198  CLST      57              1.0000000000
       286        58  DCM       C               9.7421519181        9.1887655377       -2.9534650504  CLST      58              1.0000000000
       287        58  DCM       H1             10.7518088673        9.3710158913       -3.3782576727  CLST      58              1.0000000000
       288        58  DCM       H2              9.1023968997       10.0918989004       -3.0420439710  CLST      58              1.0000000000
       289        58  DCM       CL1             8.9726224731        7.8397696222       -3.8387566276  CLST      58              1.0000000000
       290        58  DCM       CL2             9.9076248246        8.7641021535       -1.2246185580  CLST      58              1.0000000000
       291        59  DCM       C              -5.2640683749        5.9575030522       11.4267463496  CLST      59              1.0000000000
       292        59  DCM       H1             -6.2788147874        5.8253626133       10.9953546927  CLST      59              1.0000000000
       293        59  DCM       H2             -5.3199818770        6.3806494187       12.4516573744  CLST      59              1.0000000000
       294        59  DCM       CL1            -4.4467642621        4.3687371651       11.4942670085  CLST      59              1.0000000000
       295        59  DCM       CL2            -4.3312012487        7.0743600881       10.3891814764  CLST      59              1.0000000000
       296        60  DCM       C               8.5704928101       -2.5400882657       -3.7289202904  CLST      60              1.0000000000
       297        60  DCM       H1              7.5173904134       -2.8253952164       -3.9323422586  CLST      60              1.0000000000
       298        60  DCM       H2              8.8714271631       -1.6638556938       -4.3400366070  CLST      60              1.0000000000
       299        60  DCM       CL1             8.7328643825       -2.1207210920       -2.0000013305  CLST      60              1.0000000000
       300        60  DCM       CL2             9.6311351666       -3.9217068174       -4.1276172632  CLST      60              1.0000000000
       301        61  DCM       C               1.0795625935        1.2066676720        3.9704403521  CLST      61              1.0000000000
       302        61  DCM       H1              2.0444440899        1.0351438810        4.4930807143  CLST      61              1.0000000000
       303        61  DCM       H2              0.5030275081        0.2618528034        3.8815751118  CLST      61              1.0000000000
       304        61  DCM       CL1             0.1229416592        2.3909579163        4.9015984566  CLST      61              1.0000000000
       305        61  DCM       CL2             1.3986748679        1.8421097607        2.3328254834  CLST      61              1.0000000000
       306        62  DCM       C               3.2697276525       -8.2116672683        2.1132972566  CLST      62              1.0000000000
       307        62  DCM       H1              2.9522022615       -7.6836179648        1.1905487024  CLST      62              1.0000000000
       308        62  DCM       H2              2.4107161353       -8.3737874274        2.7981124398  CLST      62              1.0000000000
       309        62  DCM       CL1             3.9691790028       -9.7947906384        1.6693002595  CLST      62              1.0000000000
       310        62  DCM       CL2             4.4994210843       -7.2245114831        2.9500940736  CLST      62              1.0000000000
       311        63  DCM       C               1.6913885308        7.3485346273       -2.6269613734  CLST      63              1.0000000000
       312        63  DCM       H1              1.4059087535        8.3578243494       -2.9922639762  CLST      63              1.0000000000
       313        63  DCM       H2              2.7818101549        7.2869966195       -2.4303112148  CLST      63              1.0000000000
       314        63  DCM       CL1             1.2589141047        6.1353695880       -3.8636319066  CLST      63              1.0000000000
       315        63  DCM       CL2             0.8097312158        7.0099779521       -1.1130256653  CLST      63              1.0000000000
       316        64  DCM       C               7.8312674002       -9.7666640161        1.8633740422  CLST      64              1.0000000000
       317        64  DCM       H1              8.2354623864       -8.8360462171        1.4104005086  CLST      64              1.0000000000
       318        64  DCM       H2              6.9340476588       -9.5486287085        2.4800536425  CLST      64              1.0000000000
       319        64  DCM       CL1             7.3807894461      -10.8991645993        0.5566960737  CLST      64              1.0000000000
       320        64  DCM       CL2             9.0922400676      -10.5007166995        2.8957963636  CLST      64              1.0000000000
       321        65  DCM       C               0.9821476585        9.4985163147        1.6673585639  CLST      65              1.0000000000
       322        65  DCM       H1              0.1206843844       10.0567211028        2.0867079649  CLST      65              1.0000000000
       323        65  DCM       H2              0.7166661159        8.4364903409        1.4774092388  CLST      65              1.0000000000
       324        65  DCM       CL1             1.4681853650       10.2675355832        0.1277959348  CLST      65              1.0000000000
       325        65  DCM       CL2             2.3386845784        9.5555080662        2.8298377693  CLST      65              1.0000000000
       326        66  DCM       C              -2.6312215231        1.0494690160        2.3113365894  CLST      66              1.0000000000
       327        66  DCM       H1             -2.7523056012       -0.0154793854        2.0179885914  CLST      66              1.0000000000
       328        66  DCM       H2             -2.0663794677        1.1387323525        3.2619869733  CLST      66              1.0000000000
       329        66  DCM       CL1            -1.7439416543        1.9092995005        1.0262119806  CLST      66              1.0000000000
       330        66  DCM       CL2            -4.2411888040        1.7919309121        2.5157103973  CLST      66              1.0000000000
       331        67  DCM       C              -6.7446756425       -0.5143601144        3.3775422549  CLST      67              1.0000000000
       332        67  DCM       H1             -6.9072909453       -0.5189035887        2.2801572991  CLST      67              1.0000000000
       333        67  DCM       H2             -6.7510839618        0.5225146996        3.7736038356  CLST      67              1.0000000000
       334        67  DCM       CL1            -8.0408654390       -1.4519021117        4.1685226740  CLST      67              1.0000000000
       335        67  DCM       CL2            -5.1666687172       -1.2652841675        3.7329610589  CLST      67              1.0000000000
       336        68  DCM       C               5.7389320854       -5.7264499422       -6.9556599801  CLST      68              1.0000000000
       337        68  DCM       H1              6.1622455916       -4.8523173931       -7.4936509137  CLST      68              1.0000000000
       338        68  DCM       H2              4.7088950754       -5.5164134555       -6.6001673040  CLST      68              1.0000000000
       339        68  DCM       CL1             5.6986004856       -7.1270212228       -8.0657292734  CLST      68              1.0000000000
       340        68  DCM       CL2             6.7721922229       -6.0999963239       -5.5475789373  CLST      68              1.0000000000
       341        69  DCM       C               6.6626999818       -1.4428008602        4.1305705853  CLST      69              1.0000000000
       342        69  DCM       H1              5.5640641948       -1.5756998743        4.2225973272  CLST      69              1.0000000000
       343        69  DCM       H2              6.9106126132       -0.5857201538        3.4727099123  CLST      69              1.0000000000
       344        69  DCM       CL1             7.3499398865       -1.1467394164        5.7502892689  CLST      69              1.0000000000
       345        69  DCM       CL2             7.3771556978       -2.9226365722        3.4380221151  CLST      69              1.0000000000
       346        70  DCM       C               5.6483744219       -5.5016928054        6.0476534656  CLST      70              1.0000000000
       347        70  DCM       H1              5.8403047286       -6.3474471085        5.3557835373  CLST      70              1.0000000000
       348        70  DCM       H2              5.1701438793       -5.8572508580        6.9826395803  CLST      70              1.0000000000
       349        70  DCM       CL1             7.2043833037       -4.7299873939        6.4623702261  CLST      70              1.0000000000
       350        70  DCM       CL2             4.5630238597       -4.3271502133        5.2452846763  CLST      70              1.0000000000
       351        71  DCM       C               6.5081622016       -2.2669528317        9.2466424846  CLST      71              1.0000000000
       352        71  DCM       H1              7.3523421881       -2.6746941947        8.6539499672  CLST      71              1.0000000000
       353        71  DCM       H2              6.4964109781       -2.6912549299       10.2730280945  CLST      71              1.0000000000
       354        71  DCM       CL1             6.6810719250       -0.4927015392        9.3514761701  CLST      71              1.0000000000
       355        71  DCM       CL2             4.9708202477       -2.6754142154        8.4306352122  CLST      71              1.0000000000
       356        72  DCM       C               6.6449048201       -6.9861655868       -1.9998903797  CLST      72              1.0000000000
       357        72  DCM       H1              7.6393191709       -7.3920026745       -2.2809241243  CLST      72              1.0000000000
       358        72  DCM       H2              5.8543902992       -7.3578024724       -2.6857558620  CLST      72              1.0000000000
       359        72  DCM       CL1             6.2583568058       -7.4888588318       -0.3310754952  CLST      72              1.0000000000
       360        72  DCM       CL2             6.6990778594       -5.2035150267       -2.0903917112  CLST      72              1.0000000000
       361        73  DCM       C              -8.0609947548        9.3788895173        9.4038296933  CLST      73              1.0000000000
       362        73  DCM       H1             -8.0905377318       10.4827898553        9.5243176903  CLST      73              1.0000000000
       363        73  DCM       H2             -9.0318427625        8.9900850832        9.0310536988  CLST      73              1.0000000000
       364        73  DCM       CL1            -6.7794751223        8.9567211234        8.2317495388  CLST      73              1.0000000000
       365        73  DCM       CL2            -7.7051863433        8.6300346710       10.9879586273  CLST      73              1.0000000000
       366        74  DCM       C               1.3168787112       -4.9336732036        3.0760736575  CLST      74              1.0000000000
       367        74  DCM       H1              0.8879337050       -3.9544228272        3.3758142870  CLST      74              1.0000000000
       368        74  DCM       H2              2.4061353850       -4.8489357136        2.8768396707  CLST      74              1.0000000000
       369        74  DCM       CL1             1.0597878071       -6.1109255290        4.3938667632  CLST      74              1.0000000000
       370        74  DCM       CL2             0.4926476184       -5.4961681761        1.5946908618  CLST      74              1.0000000000
       371        75  DCM       C               1.3825965478       -2.6845181086        6.5170012495  CLST      75              1.0000000000
       372        75  DCM       H1              1.7153737252       -2.8534364439        5.4719535746  CLST      75              1.0000000000
       373        75  DCM       H2              2.2136808800       -2.8637300277        7.2319900656  CLST      75              1.0000000000
       374        75  DCM       CL1             0.8152873610       -0.9986616078        6.6830415610  CLST      75              1.0000000000
       375        75  DCM       CL2             0.0417341739       -3.8024839403        6.8941167095  CLST      75              1.0000000000
       376        76  DCM       C              10.6456760176       -0.1663605847        0.4852805019  CLST      76              1.0000000000
       377        76  DCM       H1             10.1938564447        0.1316927862       -0.4850163121  CLST      76              1.0000000000
       378        76  DCM       H2             11.2794139754        0.6472604998        0.8969139448  CLST      76              1.0000000000
       379        76  DCM       CL1             9.3387873930       -0.5270849352        1.6469385451  CLST      76              1.0000000000
       380        76  DCM       CL2            11.6513288973       -1.6245774087        0.2431252476  CLST      76              1.0000000000
       381        77  DCM       C               9.4844399594       -6.8626831839        4.1650612306  CLST      77              1.0000000000
       382        77  DCM       H1              9.5128928716       -7.9523540671        4.3733538665  CLST      77              1.0000000000
       383        77  DCM       H2              9.4919288373       -6.2758518872        5.1072077645  CLST      77              1.0000000000
       384        77  DCM       CL1            10.9182237804       -6.4260918471        3.1927482726  CLST      77              1.0000000000
       385        77  DCM       CL2             7.9935374835       -6.4858824305        3.2560595460  CLST      77              1.0000000000
       386        78  DCM       C              -7.2725611125        5.0955682566        8.1807935742  CLST      78              1.0000000000
       387        78  DCM       H1             -6.4322638981        5.7737980799        8.4360499704  CLST      78              1.0000000000
       388        78  DCM       H2             -7.3074362969        4.9033216878        7.0872750776  CLST      78              1.0000000000
       389        78  DCM       CL1            -8.8095095434        5.8523095907        8.6886999192  CLST      78              1.0000000000
       390        78  DCM       CL2            -7.0566949750        3.5410901000        9.0354937837  CLST      78              1.0000000000
       391        79  DCM       C               3.9279732783       -0.6367305332       -9.2595368639  CLST      79              1.0000000000
       392        79  DCM       H1              3.0686953834       -0.7179098529       -9.9592625694  CLST      79              1.0000000000
       393        79  DCM       H2              4.8130188939       -1.1816001267       -9.6478314702  CLST      79              1.0000000000
       394        79  DCM       CL1             4.3507872450        1.0887460272       -9.0591797740  CLST      79              1.0000000000
       395        79  DCM       CL2             3.4628710084       -1.3373703367       -7.6815342517  CLST      79              1.0000000000
       396        80  DCM       C              -0.4498797186        1.8480952237       -6.8405720454  CLST      80              1.0000000000
       397        80  DCM       H1             -1.1434407971        2.5060156478       -7.4050827207  CLST      80              1.0000000000
       398        80  DCM       H2             -0.9635556856        0.9272501532       -6.4933610265  CLST      80              1.0000000000
       399        80  DCM       CL1             0.9030570223        1.3828726607       -7.9090043902  CLST      80              1.0000000000
       400        80  DCM       CL2             0.1662946540        2.7393888101       -5.4196295276  CLST      80              1.0000000000
       401        81  DCM       C              -2.3993983769        7.8345758489        0.2213881590  CLST      81              1.0000000000
       402        81  DCM       H1             -1.7305162897        7.0073671497        0.5372051018  CLST      81              1.0000000000
       403        81  DCM       H2             -1.8885310234        8.5102408683       -0.4964044337  CLST      81              1.0000000000
       404        81  DCM       CL1            -3.8459878675        7.1346983446       -0.5600314677  CLST      81              1.0000000000
       405        81  DCM       CL2            -2.8804084045        8.7711273971        1.6657265001  CLST      81              1.0000000000
       406        82  DCM       C              -7.9921029654        5.8773632515       -3.2144057677  CLST      82              1.0000000000
       407        82  DCM       H1             -8.5401814371        6.0863858457       -2.2721256703  CLST      82              1.0000000000
       408        82  DCM       H2             -8.1140025793        6.7107200888       -3.9373846387  CLST      82              1.0000000000
       409        82  DCM       CL1            -6.2560078667        5.6800104203       -2.8489286315  CLST      82              1.0000000000
       410        82  DCM       CL2            -8.6280662724        4.3730914936       -3.9380769795  CLST      82              1.0000000000
       411        83  DCM       C              10.2018019230       -5.2145922868       -0.3605249019  CLST      83              1.0000000000
       412        83  DCM       H1             10.0429127921       -4.8831693758       -1.4072774365  CLST      83              1.0000000000
       413        83  DCM       H2             11.2368713704       -4.9958546721       -0.0231308791  CLST      83              1.0000000000
       414        83  DCM       CL1             9.0540208204       -4.3479592557        0.6980916234  CLST      83              1.0000000000
       415        83  DCM       CL2             9.9124135623       -6.9754791752       -0.2586157858  CLST      83              1.0000000000
       416        84  DCM       C              -4.2894271067        0.3204369783       -1.0120848626  CLST      84              1.0000000000
       417        84  DCM       H1             -4.0814617273        1.2210727208       -0.4007463872  CLST      84              1.0000000000
       418        84  DCM       H2             -5.1354597151        0.5077275555       -1.7039535440  CLST      84              1.0000000000
       419        84  DCM       CL1            -2.8332956616       -0.0883687439       -1.9622744161  CLST      84              1.0000000000
       420        84  DCM       CL2            -4.7086554496       -1.0393054899        0.0679751311  CLST      84              1.0000000000
       421        85  DCM       C              -7.2471035489       -6.7891196213       -6.8375907101  CLST      85              1.0000000000
       422        85  DCM       H1             -7.0075804793       -7.7711318548       -6.3807324523  CLST      85              1.0000000000
       423        85  DCM       H2             -7.7055236994       -6.9199628990       -7.8397167114  CLST      85              1.0000000000
       424        85  DCM       CL1            -8.4024610426       -5.9245074084       -5.7850253038  CLST      85              1.0000000000
       425        85  DCM       CL2            -5.7390791262       -5.8435515338       -6.9990952816  CLST      85              1.0000000000
       426        86  DCM       C               3.3896621147        4.0343577769       -1.3885944440  CLST      86              1.0000000000
       427        86  DCM       H1              3.0067813545        3.0413053091       -1.0723237286  CLST      86              1.0000000000
       428        86  DCM       H2              2.5906650976        4.8002638838       -1.3297639350  CLST      86              1.0000000000
       429        86  DCM       CL1             4.7339302020        4.5195110227       -0.3213110743  CLST      86              1.0000000000
       430        86  DCM       CL2             3.9738785083        3.9297794267       -3.0720722595  CLST      86              1.0000000000
       431        87  DCM       C               1.2272585973        5.5625075880        2.9176995562  CLST      87              1.0000000000
       432        87  DCM       H1              0.8287346132        6.4291108302        3.4839325416  CLST      87              1.0000000000
       433        87  DCM       H2              1.4712434829        4.7190821656        3.5965541231  CLST      87              1.0000000000
       434        87  DCM       CL1             0.0025284252        5.0243281110        1.7380019780  CLST      87              1.0000000000
       435        87  DCM       CL2             2.7019806577        6.0680264394        2.0555241702  CLST      87              1.0000000000
       436        88  DCM       C               6.4282230210        0.5656111785        0.1972520447  CLST      88              1.0000000000
       437        88  DCM       H1              6.4267834449       -0.0480559638        1.1209470912  CLST      88              1.0000000000
       438        88  DCM       H2              6.9890076090        0.0555763004       -0.6147649490  CLST      88              1.0000000000
       439        88  DCM       CL1             4.7398937715        0.8269284247       -0.3217699910  CLST      88              1.0000000000
       440        88  DCM       CL2             7.2059799266        2.1317289457        0.5506938360  CLST      88              1.0000000000
       441        89  DCM       C               7.7095529827        5.4772929028        1.9200849509  CLST      89              1.0000000000
       442        89  DCM       H1              8.0373165985        4.7190091699        2.6616182712  CLST      89              1.0000000000
       443        89  DCM       H2              7.4648020357        5.0039214246        0.9476556469  CLST      89              1.0000000000
       444        89  DCM       CL1             6.2574375246        6.3145191560        2.5373237697  CLST      89              1.0000000000
       445        89  DCM       CL2             9.0279713873        6.6558714864        1.6719306988  CLST      89              1.0000000000
       446        90  DCM       C              -9.6989265531       -7.2951259581      -11.6169243647  CLST      90              1.0000000000
       447        90  DCM       H1            -10.4880264978       -7.8562764604      -12.1606269347  CLST      90              1.0000000000
       448        90  DCM       H2             -9.8958279926       -6.2019291232      -11.6438198281  CLST      90              1.0000000000
       449        90  DCM       CL1            -9.6669544831       -7.8383643175       -9.9144263924  CLST      90              1.0000000000
       450        90  DCM       CL2            -8.1182974605       -7.6223527330      -12.3857808784  CLST      90              1.0000000000
       451        91  DCM       C              -2.2827800809       -1.9614357965       -5.2485371276  CLST      91              1.0000000000
       452        91  DCM       H1             -2.4940552220       -3.0195270025       -4.9841467566  CLST      91              1.0000000000
       453        91  DCM       H2             -3.0853000150       -1.2918246495       -4.8723634852  CLST      91              1.0000000000
       454        91  DCM       CL1            -2.1825607165       -1.8105949079       -7.0270316187  CLST      91              1.0000000000
       455        91  DCM       CL2            -0.7248379714       -1.4771094339       -4.5180760548  CLST      91              1.0000000000
       456        92  DCM       C               7.1445921888        5.9252094738        5.8955678675  CLST      92              1.0000000000
       457        92  DCM       H1              6.9668458913        6.8764826390        5.3507649895  CLST      92              1.0000000000
       458        92  DCM       H2              6.5271957971        5.1031725949        5.4764428577  CLST      92              1.0000000000
       459        92  DCM       CL1             8.8704128784        5.4835658920        5.7472837021  CLST      92              1.0000000000
       460        92  DCM       CL2             6.7163518891        6.1585754867        7.6152553849  CLST      92              1.0000000000
       461        93  DCM       C              -6.9161468948        6.5525471028        2.0457244340  CLST      93              1.0000000000
       462        93  DCM       H1             -7.3140196277        7.3179670237        2.7450233035  CLST      93              1.0000000000
       463        93  DCM       H2             -5.8484899535        6.7432131903        1.8086435077  CLST      93              1.0000000000
       464        93  DCM       CL1            -7.0676271674        4.9406845071        2.8032461432  CLST      93              1.0000000000
       465        93  DCM       CL2            -7.8599393301        6.5991353354        0.5302882172  CLST      93              1.0000000000
       466        94  DCM       C              -4.2719019899       -2.1743994883        7.2771335325  CLST      94              1.0000000000
       467        94  DCM       H1             -3.9082363701       -1.7246323676        6.3298020290  CLST      94              1.0000000000
       468        94  DCM       H2             -3.9880357385       -1.5478763692        8.1488409571  CLST      94              1.0000000000
       469        94  DCM       CL1            -6.0536560742       -2.3160671742        7.2131010821  CLST      94              1.0000000000
       470        94  DCM       CL2            -3.5435189648       -3.7952782701        7.4628586578  CLST      94              1.0000000000
       471        95  DCM       C               3.0563694266        6.2631831759        6.9540574204  CLST      95              1.0000000000
       472        95  DCM       H1              3.7861228697        5.4686883495        7.2175904404  CLST      95              1.0000000000
       473        95  DCM       H2              2.9413354667        6.9927295502        7.7833966430  CLST      95              1.0000000000
       474        95  DCM       CL1             3.6332969332        7.1258526133        5.4974395236  CLST      95              1.0000000000
       475        95  DCM       CL2             1.4741708214        5.5015308087        6.6232734514  CLST      95              1.0000000000
