* CHARMM CGENFF SD/ABNR BEFORE MLPOT (MM ONLY)
*  DATE:     6/28/26      2:32:56      CREATED BY USER: boittier
*
       490  EXT
         1         1  DCM       C              -9.8841195070       -6.0428702349        3.3270398324  CLST      1               1.0000000000
         2         1  DCM       H1            -10.2272739223       -5.4920600173        4.2287010173  CLST      1               1.0000000000
         3         1  DCM       H2             -8.8656096329       -5.7179327410        3.0265337010  CLST      1               1.0000000000
         4         1  DCM       CL1            -9.8530008664       -7.7916544404        3.6906340874  CLST      1               1.0000000000
         5         1  DCM       CL2           -11.0188014420       -5.7254995359        1.9839185795  CLST      1               1.0000000000
         6         2  DCM       C             -10.8398097557        6.6455065426        5.4122187115  CLST      2               1.0000000000
         7         2  DCM       H1            -10.6978939276        5.6377168289        4.9684930970  CLST      2               1.0000000000
         8         2  DCM       H2            -11.7082386544        6.6594489998        6.1045143772  CLST      2               1.0000000000
         9         2  DCM       CL1            -9.3676033410        7.0903999951        6.3212648849  CLST      2               1.0000000000
        10         2  DCM       CL2           -11.1202660943        7.8240598494        4.0978653303  CLST      2               1.0000000000
        11         3  DCM       C              12.3913380770       12.3187222574        4.9566113591  CLST      3               1.0000000000
        12         3  DCM       H1             11.9444364352       12.6490629061        3.9950427740  CLST      3               1.0000000000
        13         3  DCM       H2             13.2485958892       12.9643339564        5.2426350242  CLST      3               1.0000000000
        14         3  DCM       CL1            11.1458072174       12.4060853943        6.2364192523  CLST      3               1.0000000000
        15         3  DCM       CL2            12.9652282517       10.6343639682        4.7822373971  CLST      3               1.0000000000
        16         4  DCM       C              -5.7344344225       -1.5870863992       -7.1584202593  CLST      4               1.0000000000
        17         4  DCM       H1             -6.4519945159       -2.0454334995       -6.4449695429  CLST      4               1.0000000000
        18         4  DCM       H2             -5.8167156084       -0.4804626362       -7.1490353091  CLST      4               1.0000000000
        19         4  DCM       CL1            -4.0721076234       -2.0538071146       -6.6996347146  CLST      4               1.0000000000
        20         4  DCM       CL2            -6.0961556757       -2.1888263540       -8.8010044992  CLST      4               1.0000000000
        21         5  DCM       C              -7.4622771133       -6.0419855464        0.0598329610  CLST      5               1.0000000000
        22         5  DCM       H1             -7.3448084841       -7.1402248805       -0.0499358220  CLST      5               1.0000000000
        23         5  DCM       H2             -8.4931781567       -5.7783180635        0.3758288478  CLST      5               1.0000000000
        24         5  DCM       CL1            -7.1206515850       -5.2616894276       -1.5109241652  CLST      5               1.0000000000
        25         5  DCM       CL2            -6.3079581544       -5.4628772227        1.2936191937  CLST      5               1.0000000000
        26         6  DCM       C              -3.1780644370        6.1757856082        9.6755846319  CLST      6               1.0000000000
        27         6  DCM       H1             -3.7488452917        6.9257939634       10.2624495025  CLST      6               1.0000000000
        28         6  DCM       H2             -3.6121113692        5.1605949049        9.7953810509  CLST      6               1.0000000000
        29         6  DCM       CL1            -3.2259178572        6.6280165926        7.9472064345  CLST      6               1.0000000000
        30         6  DCM       CL2            -1.4852573810        6.1596432185       10.2491826126  CLST      6               1.0000000000
        31         7  DCM       C               0.8894814406        4.9703377051        5.9280563155  CLST      7               1.0000000000
        32         7  DCM       H1              0.5308069591        4.0630084404        6.4578768355  CLST      7               1.0000000000
        33         7  DCM       H2              0.5703935424        4.9653148273        4.8654489684  CLST      7               1.0000000000
        34         7  DCM       CL1             0.2150921986        6.4149515264        6.7338056226  CLST      7               1.0000000000
        35         7  DCM       CL2             2.6740934690        5.0105414148        6.0014406919  CLST      7               1.0000000000
        36         8  DCM       C               8.2483620957       -9.8301857640       -5.1996922986  CLST      8               1.0000000000
        37         8  DCM       H1              7.9867624554       -8.7506328735       -5.2061206297  CLST      8               1.0000000000
        38         8  DCM       H2              9.1433076230      -10.0264766256       -5.8269749589  CLST      8               1.0000000000
        39         8  DCM       CL1             8.5874238183      -10.3423085104       -3.5207498924  CLST      8               1.0000000000
        40         8  DCM       CL2             6.8716884712      -10.7674009262       -5.8449506548  CLST      8               1.0000000000
        41         9  DCM       C               9.0099863170       -8.3684005086       -0.1676807638  CLST      9               1.0000000000
        42         9  DCM       H1              8.2281674810       -8.3557429310        0.6204548077  CLST      9               1.0000000000
        43         9  DCM       H2              8.5917516099       -8.7199986054       -1.1324768436  CLST      9               1.0000000000
        44         9  DCM       CL1             9.6542576007       -6.7149412944       -0.3818646048  CLST      9               1.0000000000
        45         9  DCM       CL2            10.3240300985       -9.4736392912        0.3266704897  CLST      9               1.0000000000
        46        10  DCM       C               4.6006923282        3.6564641035       -7.2448610849  CLST      10              1.0000000000
        47        10  DCM       H1              3.5527034474        3.5371732761       -6.9056071129  CLST      10              1.0000000000
        48        10  DCM       H2              4.7625208733        4.6626421186       -7.6815956862  CLST      10              1.0000000000
        49        10  DCM       CL1             5.6877456862        3.4468171298       -5.8421948476  CLST      10              1.0000000000
        50        10  DCM       CL2             4.9543680634        2.4198110924       -8.4859273461  CLST      10              1.0000000000
        51        11  DCM       C              -1.3610218533       -8.6910348501       -5.2559356350  CLST      11              1.0000000000
        52        11  DCM       H1             -2.4187138872       -8.4296476119       -5.4731555400  CLST      11              1.0000000000
        53        11  DCM       H2             -0.6681451939       -8.0615864037       -5.8515494860  CLST      11              1.0000000000
        54        11  DCM       CL1            -1.0383181352       -8.4262134613       -3.5182704687  CLST      11              1.0000000000
        55        11  DCM       CL2            -1.0773468854      -10.4051904051       -5.6731906223  CLST      11              1.0000000000
        56        12  DCM       C               5.8125213989        0.9807827100        4.8151307266  CLST      12              1.0000000000
        57        12  DCM       H1              6.2947358393        1.3994600215        3.9060081090  CLST      12              1.0000000000
        58        12  DCM       H2              6.3237974475        1.3307777324        5.7365877758  CLST      12              1.0000000000
        59        12  DCM       CL1             4.1067047523        1.5102615039        4.8638463710  CLST      12              1.0000000000
        60        12  DCM       CL2             5.8910020119       -0.8036579731        4.7479885293  CLST      12              1.0000000000
        61        13  DCM       C               3.7043627595        3.3408463473        9.1702187991  CLST      13              1.0000000000
        62        13  DCM       H1              3.6041120978        4.3945747167        8.8319284673  CLST      13              1.0000000000
        63        13  DCM       H2              3.9032444264        3.2879891382       10.2608280548  CLST      13              1.0000000000
        64        13  DCM       CL1             2.1850722696        2.4713872565        8.8157183904  CLST      13              1.0000000000
        65        13  DCM       CL2             5.0569905735        2.5714531502        8.2903831009  CLST      13              1.0000000000
        66        14  DCM       C             -10.9510802116        2.6333306332        8.0767577662  CLST      14              1.0000000000
        67        14  DCM       H1            -10.8341707433        2.4474518670        6.9887906532  CLST      14              1.0000000000
        68        14  DCM       H2            -11.9011015818        2.2012765099        8.4555653068  CLST      14              1.0000000000
        69        14  DCM       CL1            -9.5815880395        1.8802752838        8.9446457771  CLST      14              1.0000000000
        70        14  DCM       CL2           -10.9586959940        4.3968684630        8.3663549935  CLST      14              1.0000000000
        71        15  DCM       C               7.2882906247       -4.6238104418        1.5579507546  CLST      15              1.0000000000
        72        15  DCM       H1              7.7249682087       -4.9794063298        2.5148122716  CLST      15              1.0000000000
        73        15  DCM       H2              8.0826379484       -4.3977465301        0.8151538619  CLST      15              1.0000000000
        74        15  DCM       CL1             6.2203245452       -5.8941218152        0.8958022266  CLST      15              1.0000000000
        75        15  DCM       CL2             6.3442250237       -3.1390856227        1.8673760024  CLST      15              1.0000000000
        76        16  DCM       C              -5.9286011281       -9.3592669677        2.2773164987  CLST      16              1.0000000000
        77        16  DCM       H1             -5.8222904404       -9.9684695140        1.3544100180  CLST      16              1.0000000000
        78        16  DCM       H2             -6.3268512670       -8.3499991149        2.0437537073  CLST      16              1.0000000000
        79        16  DCM       CL1            -4.3251441480       -9.1843063700        3.0527562772  CLST      16              1.0000000000
        80        16  DCM       CL2            -7.0588215010      -10.1797093380        3.3918947387  CLST      16              1.0000000000
        81        17  DCM       C               0.6935851125       -2.4725988718        5.5746680493  CLST      17              1.0000000000
        82        17  DCM       H1              1.1613660951       -3.2216889345        6.2479048047  CLST      17              1.0000000000
        83        17  DCM       H2              0.3038581488       -1.6110383861        6.1552830242  CLST      17              1.0000000000
        84        17  DCM       CL1             1.9195644190       -1.8904505605        4.4110849329  CLST      17              1.0000000000
        85        17  DCM       CL2            -0.6649152257       -3.2370151497        4.7014674432  CLST      17              1.0000000000
        86        18  DCM       C               3.7202568995        3.7396508837       -2.5668467668  CLST      18              1.0000000000
        87        18  DCM       H1              3.6981991462        2.8729072660       -3.2597777643  CLST      18              1.0000000000
        88        18  DCM       H2              4.4297011060        4.5160993267       -2.9234124651  CLST      18              1.0000000000
        89        18  DCM       CL1             2.0813784697        4.4474756142       -2.4679761440  CLST      18              1.0000000000
        90        18  DCM       CL2             4.2357385514        3.1730789395       -0.9513511202  CLST      18              1.0000000000
        91        19  DCM       C              -6.5447926554        7.9191894394        8.6510804518  CLST      19              1.0000000000
        92        19  DCM       H1             -5.9122865672        7.6365811872        7.7843959749  CLST      19              1.0000000000
        93        19  DCM       H2             -7.5173819935        8.3317205882        8.3104506786  CLST      19              1.0000000000
        94        19  DCM       CL1            -6.8424984985        6.4688878292        9.6531731525  CLST      19              1.0000000000
        95        19  DCM       CL2            -5.6871079244        9.1573886406        9.6128529925  CLST      19              1.0000000000
        96        20  DCM       C               3.4360087886       -1.0419654093        7.6862051767  CLST      20              1.0000000000
        97        20  DCM       H1              3.1292061379       -0.5254700372        6.7528842287  CLST      20              1.0000000000
        98        20  DCM       H2              4.1895771545       -0.4437876719        8.2403814482  CLST      20              1.0000000000
        99        20  DCM       CL1             1.9959279867       -1.2688888726        8.7191053305  CLST      20              1.0000000000
       100        20  DCM       CL2             4.1393420131       -2.6329612121        7.2709360805  CLST      20              1.0000000000
       101        21  DCM       C              -8.4357581316        5.4960098856        1.6475254059  CLST      21              1.0000000000
       102        21  DCM       H1             -7.7577198019        4.6455126290        1.4368384013  CLST      21              1.0000000000
       103        21  DCM       H2             -8.5187075481        6.1594974036        0.7617137795  CLST      21              1.0000000000
       104        21  DCM       CL1           -10.0545243533        4.8631998076        2.0620657870  CLST      21              1.0000000000
       105        21  DCM       CL2            -7.7820652294        6.4287116727        3.0231698601  CLST      21              1.0000000000
       106        22  DCM       C              -3.1292456316        7.2747130890       -3.5862868896  CLST      22              1.0000000000
       107        22  DCM       H1             -2.9038737189        6.4390435034       -2.8931184633  CLST      22              1.0000000000
       108        22  DCM       H2             -3.5328317552        6.8923349695       -4.5463949807  CLST      22              1.0000000000
       109        22  DCM       CL1            -4.3404701523        8.3453686059       -2.8283320760  CLST      22              1.0000000000
       110        22  DCM       CL2            -1.6262752952        8.1872185122       -3.9056829975  CLST      22              1.0000000000
       111        23  DCM       C              -3.6363104829       -6.5017390425       -1.4328199214  CLST      23              1.0000000000
       112        23  DCM       H1             -2.5276992321       -6.4489435267       -1.4072802860  CLST      23              1.0000000000
       113        23  DCM       H2             -4.0897708910       -5.5502482199       -1.0845392394  CLST      23              1.0000000000
       114        23  DCM       CL1            -4.1605127403       -6.8214848164       -3.1085038214  CLST      23              1.0000000000
       115        23  DCM       CL2            -4.1858680365       -7.8322058145       -0.3758103106  CLST      23              1.0000000000
       116        24  DCM       C              -4.7395324618        2.9759572276       -4.8766938099  CLST      24              1.0000000000
       117        24  DCM       H1             -5.0118591205        3.4308134409       -5.8496223187  CLST      24              1.0000000000
       118        24  DCM       H2             -3.6897484458        2.6189834907       -4.8866366440  CLST      24              1.0000000000
       119        24  DCM       CL1            -4.9196536079        4.1967508100       -3.5882645878  CLST      24              1.0000000000
       120        24  DCM       CL2            -5.8214501028        1.5939448587       -4.5651049928  CLST      24              1.0000000000
       121        25  DCM       C              -3.8136022721        0.8854566728       -9.6196780859  CLST      25              1.0000000000
       122        25  DCM       H1             -3.6275546740        1.5766998617      -10.4688460240  CLST      25              1.0000000000
       123        25  DCM       H2             -4.6787667914        0.2215488778       -9.8275050372  CLST      25              1.0000000000
       124        25  DCM       CL1            -2.3602697800       -0.1186966107       -9.3562368989  CLST      25              1.0000000000
       125        25  DCM       CL2            -4.1534051486        1.8459450131       -8.1526007132  CLST      25              1.0000000000
       126        26  DCM       C              -9.9447189238      -10.3232488402        0.7876868947  CLST      26              1.0000000000
       127        26  DCM       H1             -9.8855587616      -10.2174900128        1.8916140156  CLST      26              1.0000000000
       128        26  DCM       H2            -10.8880889179      -10.8233889003        0.4834410845  CLST      26              1.0000000000
       129        26  DCM       CL1            -9.8833668047       -8.6991143198        0.0431315778  CLST      26              1.0000000000
       130        26  DCM       CL2            -8.5604697128      -11.3046624706        0.2254731069  CLST      26              1.0000000000
       131        27  DCM       C             -11.2335660721       -1.6713198715        8.2470455253  CLST      27              1.0000000000
       132        27  DCM       H1            -10.3212632517       -1.0383788150        8.2668681895  CLST      27              1.0000000000
       133        27  DCM       H2            -11.4363928002       -2.1067950870        9.2482819206  CLST      27              1.0000000000
       134        27  DCM       CL1           -12.6256913249       -0.6645702155        7.7532973771  CLST      27              1.0000000000
       135        27  DCM       CL2           -10.9959179593       -2.9996190724        7.0731890434  CLST      27              1.0000000000
       136        28  DCM       C               6.3542531536      -12.4137833500       -1.1642252841  CLST      28              1.0000000000
       137        28  DCM       H1              6.2719773673      -11.6735321696       -1.9878447631  CLST      28              1.0000000000
       138        28  DCM       H2              6.8668611505      -13.3365081272       -1.5087739239  CLST      28              1.0000000000
       139        28  DCM       CL1             7.2921766685      -11.6924349795        0.1757602823  CLST      28              1.0000000000
       140        28  DCM       CL2             4.7125936423      -12.8355913855       -0.5953112393  CLST      28              1.0000000000
       141        29  DCM       C              -7.3549295331       -7.0784801113        6.3855711655  CLST      29              1.0000000000
       142        29  DCM       H1             -6.5911039034       -7.2241744548        7.1780208564  CLST      29              1.0000000000
       143        29  DCM       H2             -8.0036112456       -7.9746740575        6.2876919778  CLST      29              1.0000000000
       144        29  DCM       CL1            -8.3647499126       -5.6656262023        6.8076381438  CLST      29              1.0000000000
       145        29  DCM       CL2            -6.5289394425       -6.7881346271        4.8280387820  CLST      29              1.0000000000
       146        30  DCM       C               1.2862739187       -9.7792280813       -9.7683819203  CLST      30              1.0000000000
       147        30  DCM       H1              1.9239392051      -10.6896159800       -9.7673786959  CLST      30              1.0000000000
       148        30  DCM       H2              0.2582406057      -10.0116832272      -10.1194996872  CLST      30              1.0000000000
       149        30  DCM       CL1             1.1996354651       -9.1293236984       -8.1081994974  CLST      30              1.0000000000
       150        30  DCM       CL2             2.0137243204       -8.5626679911      -10.8573052674  CLST      30              1.0000000000
       151        31  DCM       C              -7.7456185729       10.1395811886        4.7765460078  CLST      31              1.0000000000
       152        31  DCM       H1             -8.6768733770        9.6158057082        4.4767768273  CLST      31              1.0000000000
       153        31  DCM       H2             -7.9256062644       10.8132554085        5.6400994858  CLST      31              1.0000000000
       154        31  DCM       CL1            -6.5237775639        8.9230755082        5.2357700663  CLST      31              1.0000000000
       155        31  DCM       CL2            -7.1432428486       11.1101833868        3.4029639767  CLST      31              1.0000000000
       156        32  DCM       C              -4.6476360221      -10.4132531268       -4.4467535606  CLST      32              1.0000000000
       157        32  DCM       H1             -5.1816370366       -9.4399637966       -4.4210534863  CLST      32              1.0000000000
       158        32  DCM       H2             -3.9067858250      -10.4369740101       -5.2705198315  CLST      32              1.0000000000
       159        32  DCM       CL1            -3.7991693856      -10.6555962366       -2.8917766518  CLST      32              1.0000000000
       160        32  DCM       CL2            -5.8320968637      -11.7259068078       -4.7047613723  CLST      32              1.0000000000
       161        33  DCM       C               1.1551303197       -4.1106064559        1.6189231841  CLST      33              1.0000000000
       162        33  DCM       H1              1.1173668490       -4.1929562459        2.7233962293  CLST      33              1.0000000000
       163        33  DCM       H2              0.9501447434       -5.0939574515        1.1485329150  CLST      33              1.0000000000
       164        33  DCM       CL1            -0.0783553238       -2.9378331520        1.0739819596  CLST      33              1.0000000000
       165        33  DCM       CL2             2.7817876496       -3.5514250510        1.1344843916  CLST      33              1.0000000000
       166        34  DCM       C              -8.9127076662        2.9529982170       -2.9337050681  CLST      34              1.0000000000
       167        34  DCM       H1             -9.4827626317        3.1908190209       -3.8563054516  CLST      34              1.0000000000
       168        34  DCM       H2             -7.8576022698        3.2892527511       -3.0199271346  CLST      34              1.0000000000
       169        34  DCM       CL1            -9.6759346079        3.7831000069       -1.5466864947  CLST      34              1.0000000000
       170        34  DCM       CL2            -8.9435236806        1.1851540202       -2.6725847127  CLST      34              1.0000000000
       171        35  DCM       C              -6.4247772287        5.9930378469       -6.4378390124  CLST      35              1.0000000000
       172        35  DCM       H1             -6.8521571584        6.9862337465       -6.6841758947  CLST      35              1.0000000000
       173        35  DCM       H2             -5.5876672213        6.0941295579       -5.7156305600  CLST      35              1.0000000000
       174        35  DCM       CL1            -5.8167369114        5.2365268093       -7.9382260875  CLST      35              1.0000000000
       175        35  DCM       CL2            -7.7086459364        4.9768003497       -5.7203113095  CLST      35              1.0000000000
       176        36  DCM       C              -2.9664748803       -0.9344213504        6.9100698015  CLST      36              1.0000000000
       177        36  DCM       H1             -3.9310794232       -0.4658177365        7.1966986895  CLST      36              1.0000000000
       178        36  DCM       H2             -3.0499329532       -2.0414412282        6.8871652950  CLST      36              1.0000000000
       179        36  DCM       CL1            -2.5069983642       -0.3560213709        5.2831966979  CLST      36              1.0000000000
       180        36  DCM       CL2            -1.7173974711       -0.4653274216        8.0981612940  CLST      36              1.0000000000
       181        37  DCM       C              -0.2388838783        2.8318670716       -8.8768510593  CLST      37              1.0000000000
       182        37  DCM       H1              0.0517324121        1.8976086774       -9.4025076820  CLST      37              1.0000000000
       183        37  DCM       H2             -0.7006978343        2.6070924807       -7.8929556515  CLST      37              1.0000000000
       184        37  DCM       CL1             1.2174846382        3.8351600813       -8.6227850049  CLST      37              1.0000000000
       185        37  DCM       CL2            -1.4178333705        3.7250121359       -9.8797647402  CLST      37              1.0000000000
       186        38  DCM       C              -8.5459517307        7.4296310950       -3.0186502706  CLST      38              1.0000000000
       187        38  DCM       H1             -8.9919105792        8.0921243665       -2.2479973789  CLST      38              1.0000000000
       188        38  DCM       H2             -9.3250648206        6.8066357228       -3.5080295351  CLST      38              1.0000000000
       189        38  DCM       CL1            -7.7433857331        8.4435546547       -4.2521333937  CLST      38              1.0000000000
       190        38  DCM       CL2            -7.3452488449        6.3622658611       -2.2365107976  CLST      38              1.0000000000
       191        39  DCM       C              -8.9568157607        7.1076353000       -9.1350343821  CLST      39              1.0000000000
       192        39  DCM       H1             -7.8640470203        7.2887328972       -9.2109760766  CLST      39              1.0000000000
       193        39  DCM       H2             -9.5016948124        7.5993579300       -9.9692305735  CLST      39              1.0000000000
       194        39  DCM       CL1            -9.2610235855        5.3470133661       -9.2008427087  CLST      39              1.0000000000
       195        39  DCM       CL2            -9.5518870079        7.7669309173       -7.5830105479  CLST      39              1.0000000000
       196        40  DCM       C              -3.7638493591       11.4516223569        7.3406344226  CLST      40              1.0000000000
       197        40  DCM       H1             -3.0102053218       12.2195314987        7.0660636770  CLST      40              1.0000000000
       198        40  DCM       H2             -3.7364570419       11.2369371452        8.4292699664  CLST      40              1.0000000000
       199        40  DCM       CL1            -5.3927543375       12.0490843242        6.9112953035  CLST      40              1.0000000000
       200        40  DCM       CL2            -3.4105745029        9.9475026859        6.4425971147  CLST      40              1.0000000000
       201        41  DCM       C              -0.8862518531        4.8284141814       -5.4662338237  CLST      41              1.0000000000
       202        41  DCM       H1             -0.5498794263        5.8654300358       -5.2625603611  CLST      41              1.0000000000
       203        41  DCM       H2             -0.0974060666        4.2529160722       -5.9923952078  CLST      41              1.0000000000
       204        41  DCM       CL1            -2.3502346635        4.8784538423       -6.4875525397  CLST      41              1.0000000000
       205        41  DCM       CL2            -1.2520294851        4.0322738588       -3.9124055599  CLST      41              1.0000000000
       206        42  DCM       C              -7.4744474754        3.9731825235        6.8493079944  CLST      42              1.0000000000
       207        42  DCM       H1             -8.0740249869        4.5076694906        7.6150524523  CLST      42              1.0000000000
       208        42  DCM       H2             -7.0937654313        3.0071500074        7.2440273963  CLST      42              1.0000000000
       209        42  DCM       CL1            -8.5041061133        3.6545740331        5.4245055071  CLST      42              1.0000000000
       210        42  DCM       CL2            -6.0913638406        5.0005086401        6.3774925545  CLST      42              1.0000000000
       211        43  DCM       C              -1.3777779612        1.3736885860       -1.5846943661  CLST      43              1.0000000000
       212        43  DCM       H1             -1.1411696481        2.4154351509       -1.2833037070  CLST      43              1.0000000000
       213        43  DCM       H2             -0.6450744694        0.9997212449       -2.3267881880  CLST      43              1.0000000000
       214        43  DCM       CL1            -2.9975791604        1.3346435297       -2.3276224582  CLST      43              1.0000000000
       215        43  DCM       CL2            -1.3484359196        0.3246963278       -0.1383539257  CLST      43              1.0000000000
       216        44  DCM       C               0.4215154519      -11.1085777878       -1.2018068343  CLST      44              1.0000000000
       217        44  DCM       H1              0.2873155992      -11.8385114004       -0.3756048437  CLST      44              1.0000000000
       218        44  DCM       H2             -0.4140848956      -10.3777395249       -1.2298528668  CLST      44              1.0000000000
       219        44  DCM       CL1             1.9598672882      -10.2326426716       -0.9567579170  CLST      44              1.0000000000
       220        44  DCM       CL2             0.4660553223      -11.9882825857       -2.7554803207  CLST      44              1.0000000000
       221        45  DCM       C               3.8827845982       -6.7478707660       -6.9264499727  CLST      45              1.0000000000
       222        45  DCM       H1              3.6665392108       -5.7682375977       -6.4539677198  CLST      45              1.0000000000
       223        45  DCM       H2              3.0387341902       -7.4508367394       -6.7808867992  CLST      45              1.0000000000
       224        45  DCM       CL1             4.1450507291       -6.5129463684       -8.6761172608  CLST      45              1.0000000000
       225        45  DCM       CL2             5.3516444506       -7.4334533276       -6.1824103848  CLST      45              1.0000000000
       226        46  DCM       C              -6.0865423097        1.4524418016       -0.5497880980  CLST      46              1.0000000000
       227        46  DCM       H1             -5.8130802605        1.1346476531       -1.5767403955  CLST      46              1.0000000000
       228        46  DCM       H2             -7.0768250163        1.0436001661       -0.2613836988  CLST      46              1.0000000000
       229        46  DCM       CL1            -4.8560091502        0.8554973624        0.5992513785  CLST      46              1.0000000000
       230        46  DCM       CL2            -6.1506296919        3.2355354841       -0.4899386206  CLST      46              1.0000000000
       231        47  DCM       C               9.4630663304       -9.1854599436        8.3495233617  CLST      47              1.0000000000
       232        47  DCM       H1              8.6183984037       -8.4782083490        8.4918434937  CLST      47              1.0000000000
       233        47  DCM       H2             10.3627174201       -8.8539463442        8.9099991268  CLST      47              1.0000000000
       234        47  DCM       CL1             8.9742782547      -10.8011787235        8.9384379222  CLST      47              1.0000000000
       235        47  DCM       CL2             9.8626037621       -9.2696774137        6.6096319612  CLST      47              1.0000000000
       236        48  DCM       C               5.9997801968       -9.3398152957       -9.8835128612  CLST      48              1.0000000000
       237        48  DCM       H1              5.4811424852       -8.5205768438      -10.4252485722  CLST      48              1.0000000000
       238        48  DCM       H2              6.4027177165      -10.0943706498      -10.5913789889  CLST      48              1.0000000000
       239        48  DCM       CL1             7.3525993376       -8.6474487595       -8.9410161775  CLST      48              1.0000000000
       240        48  DCM       CL2             4.8360740761      -10.1372802707       -8.7844895960  CLST      48              1.0000000000
       241        49  DCM       C              -9.5042319323        8.5064768327       11.0934748994  CLST      49              1.0000000000
       242        49  DCM       H1             -9.4071761548        7.6933503366       11.8435924552  CLST      49              1.0000000000
       243        49  DCM       H2             -8.5069799619        8.8766065706       10.7754364787  CLST      49              1.0000000000
       244        49  DCM       CL1           -10.3755988780        7.8774493310        9.6652916844  CLST      49              1.0000000000
       245        49  DCM       CL2           -10.4202531471        9.8622433209       11.8126078440  CLST      49              1.0000000000
       246        50  DCM       C               0.3640713801        1.4262259465        4.1010025815  CLST      50              1.0000000000
       247        50  DCM       H1              0.0463471194        0.4501557922        3.6757031929  CLST      50              1.0000000000
       248        50  DCM       H2              1.2862770529        1.7952224297        3.6060529269  CLST      50              1.0000000000
       249        50  DCM       CL1            -0.9419331399        2.6176400798        3.8595893195  CLST      50              1.0000000000
       250        50  DCM       CL2             0.6804989521        1.2316359234        5.8476101695  CLST      50              1.0000000000
       251        51  DCM       C               2.6767392503        0.7430078693       -5.9190289637  CLST      51              1.0000000000
       252        51  DCM       H1              2.5959502193       -0.1462278876       -5.2595152781  CLST      51              1.0000000000
       253        51  DCM       H2              3.7271426418        1.0942703687       -5.9797083522  CLST      51              1.0000000000
       254        51  DCM       CL1             2.1091766709        0.3155476429       -7.5581456394  CLST      51              1.0000000000
       255        51  DCM       CL2             1.6656558511        2.0574290111       -5.2581725870  CLST      51              1.0000000000
       256        52  DCM       C              -0.3050006091       -8.5883863234        1.9754096188  CLST      52              1.0000000000
       257        52  DCM       H1              0.0460494678       -9.6371758341        1.8723598011  CLST      52              1.0000000000
       258        52  DCM       H2             -1.1944702076       -8.5268184647        2.6380607358  CLST      52              1.0000000000
       259        52  DCM       CL1             1.0098060139       -7.6029959383        2.6689386947  CLST      52              1.0000000000
       260        52  DCM       CL2            -0.7321850679       -7.9517272670        0.3655034281  CLST      52              1.0000000000
       261        53  DCM       C              -3.2221244174       -6.9291023482       -9.8446297485  CLST      53              1.0000000000
       262        53  DCM       H1             -4.0695712620       -7.6411871395       -9.9304256024  CLST      53              1.0000000000
       263        53  DCM       H2             -2.6269931544       -6.9015647907      -10.7818529590  CLST      53              1.0000000000
       264        53  DCM       CL1            -3.8700403475       -5.2951755424       -9.5166910999  CLST      53              1.0000000000
       265        53  DCM       CL2            -2.1644317304       -7.4453228024       -8.4999409333  CLST      53              1.0000000000
       266        54  DCM       C              -6.5740469976       -3.0800204708        3.8725547878  CLST      54              1.0000000000
       267        54  DCM       H1             -6.1690444582       -4.1079753428        3.9684056141  CLST      54              1.0000000000
       268        54  DCM       H2             -6.5015147093       -2.7173888118        2.8265506734  CLST      54              1.0000000000
       269        54  DCM       CL1            -8.2873819529       -3.0677754170        4.3760277257  CLST      54              1.0000000000
       270        54  DCM       CL2            -5.6301552425       -1.9947266236        4.9240067588  CLST      54              1.0000000000
       271        55  DCM       C               7.9186821966       -8.0734710457        3.7015698727  CLST      55              1.0000000000
       272        55  DCM       H1              7.1266476995       -7.5947156396        3.0906019933  CLST      55              1.0000000000
       273        55  DCM       H2              7.7126031345       -7.9534331460        4.7849443976  CLST      55              1.0000000000
       274        55  DCM       CL1             7.9793715994       -9.8158706723        3.3096461955  CLST      55              1.0000000000
       275        55  DCM       CL2             9.4879641543       -7.3059129832        3.3273392358  CLST      55              1.0000000000
       276        56  DCM       C              -4.2860469749       -4.7318866462        8.7081487123  CLST      56              1.0000000000
       277        56  DCM       H1             -3.4399879751       -5.3719929086        9.0370568784  CLST      56              1.0000000000
       278        56  DCM       H2             -4.1411907551       -3.6790395925        9.0304285823  CLST      56              1.0000000000
       279        56  DCM       CL1            -5.7959664633       -5.3579908475        9.4279123821  CLST      56              1.0000000000
       280        56  DCM       CL2            -4.3918851622       -4.7835806688        6.9254892341  CLST      56              1.0000000000
       281        57  DCM       C               3.4229730799       -3.9815611348      -11.6093261831  CLST      57              1.0000000000
       282        57  DCM       H1              4.0546651416       -3.7444179015      -12.4913451810  CLST      57              1.0000000000
       283        57  DCM       H2              4.0121508862       -4.5038991525      -10.8272951165  CLST      57              1.0000000000
       284        57  DCM       CL1             2.0765251801       -5.0384865749      -12.1228918909  CLST      57              1.0000000000
       285        57  DCM       CL2             2.7750413939       -2.4594591655      -10.9317062136  CLST      57              1.0000000000
       286        58  DCM       C               1.8063733646       -6.6220602912       -1.8472404019  CLST      58              1.0000000000
       287        58  DCM       H1              1.2433776391       -7.5745894178       -1.9278684636  CLST      58              1.0000000000
       288        58  DCM       H2              2.4274611639       -6.4509440105       -2.7500886797  CLST      58              1.0000000000
       289        58  DCM       CL1             0.6448674287       -5.2758564976       -1.6768411919  CLST      58              1.0000000000
       290        58  DCM       CL2             2.8697133340       -6.7012595451       -0.4151684719  CLST      58              1.0000000000
       291        59  DCM       C              -8.5864825281        1.6205775407        2.2180234781  CLST      59              1.0000000000
       292        59  DCM       H1             -9.0453775966        2.0191789061        3.1459154691  CLST      59              1.0000000000
       293        59  DCM       H2             -7.9137233964        2.3700287645        1.7556568296  CLST      59              1.0000000000
       294        59  DCM       CL1            -7.6384998904        0.1623954799        2.6155278067  CLST      59              1.0000000000
       295        59  DCM       CL2            -9.8797910938        1.2046447120        1.0585514537  CLST      59              1.0000000000
       296        60  DCM       C               5.5897435385       -8.1078277151       -2.7927179911  CLST      60              1.0000000000
       297        60  DCM       H1              4.6545656511       -7.5276244527       -2.9335727481  CLST      60              1.0000000000
       298        60  DCM       H2              5.6837063383       -8.9053022345       -3.5596143379  CLST      60              1.0000000000
       299        60  DCM       CL1             6.9857490918       -7.0008305307       -2.9234981182  CLST      60              1.0000000000
       300        60  DCM       CL2             5.5661598560       -8.8614401078       -1.1769882638  CLST      60              1.0000000000
       301        61  DCM       C              -0.3332213840       -4.4956760792       -5.1294383223  CLST      61              1.0000000000
       302        61  DCM       H1             -0.0743697387       -3.6766267149       -5.8312233218  CLST      61              1.0000000000
       303        61  DCM       H2             -0.3882679100       -4.1244299747       -4.0853872605  CLST      61              1.0000000000
       304        61  DCM       CL1            -1.9216248526       -5.1747709207       -5.5793727682  CLST      61              1.0000000000
       305        61  DCM       CL2             0.9254432901       -5.7569805495       -5.2308573763  CLST      61              1.0000000000
       306        62  DCM       C               4.2101857959       -5.0200855602        4.0491662171  CLST      62              1.0000000000
       307        62  DCM       H1              4.2039773435       -5.5049166262        3.0496332013  CLST      62              1.0000000000
       308        62  DCM       H2              4.2910355900       -3.9159780448        3.9584062771  CLST      62              1.0000000000
       309        62  DCM       CL1             2.6902038689       -5.4205628574        4.8920930566  CLST      62              1.0000000000
       310        62  DCM       CL2             5.6007921225       -5.6318043001        4.9889416155  CLST      62              1.0000000000
       311        63  DCM       C              -0.4618779574       -6.6957790931        5.9790889015  CLST      63              1.0000000000
       312        63  DCM       H1             -0.1518668363       -5.6465332267        6.1583661392  CLST      63              1.0000000000
       313        63  DCM       H2              0.3242847437       -7.2478000440        5.4278217451  CLST      63              1.0000000000
       314        63  DCM       CL1            -0.7362390457       -7.4963054682        7.5522768011  CLST      63              1.0000000000
       315        63  DCM       CL2            -1.9613879663       -6.7122109469        5.0072729850  CLST      63              1.0000000000
       316        64  DCM       C             -10.7688228992       -0.1457030981        4.5676425334  CLST      64              1.0000000000
       317        64  DCM       H1            -10.3829942070       -0.4732772267        3.5791916199  CLST      64              1.0000000000
       318        64  DCM       H2            -11.4314583185       -0.9202272993        5.0065724107  CLST      64              1.0000000000
       319        64  DCM       CL1            -9.3900070411        0.1384133385        5.6691954905  CLST      64              1.0000000000
       320        64  DCM       CL2           -11.6980030969        1.3681961309        4.3658779973  CLST      64              1.0000000000
       321        65  DCM       C              -5.0290326592       -1.5902445312       -3.1314262355  CLST      65              1.0000000000
       322        65  DCM       H1             -4.4750792668       -1.0308084988       -3.9144035213  CLST      65              1.0000000000
       323        65  DCM       H2             -4.9292165913       -1.0919042310       -2.1444515814  CLST      65              1.0000000000
       324        65  DCM       CL1            -6.7568187300       -1.6696312085       -3.5809523692  CLST      65              1.0000000000
       325        65  DCM       CL2            -4.3630193723       -3.2423548005       -3.0135928808  CLST      65              1.0000000000
       326        66  DCM       C               4.9517380399       -3.7168274465       -1.9560920195  CLST      66              1.0000000000
       327        66  DCM       H1              4.6758567463       -4.3830575790       -1.1121919655  CLST      66              1.0000000000
       328        66  DCM       H2              4.4248666130       -2.7427237192       -1.8819445679  CLST      66              1.0000000000
       329        66  DCM       CL1             6.7131015708       -3.4220046734       -1.9124746973  CLST      66              1.0000000000
       330        66  DCM       CL2             4.5077854361       -4.5108965810       -3.4953432771  CLST      66              1.0000000000
       331        67  DCM       C              -8.0050471029        1.9727624372       -7.6936722036  CLST      67              1.0000000000
       332        67  DCM       H1             -7.0925160180        2.4211697630       -7.2481711751  CLST      67              1.0000000000
       333        67  DCM       H2             -8.7992180726        2.7368190713       -7.8287679300  CLST      67              1.0000000000
       334        67  DCM       CL1            -7.5891372255        1.2782600599       -9.2868113533  CLST      67              1.0000000000
       335        67  DCM       CL2            -8.6137658130        0.6881800273       -6.6093366951  CLST      67              1.0000000000
       336        68  DCM       C              -2.8012800104        2.9808493315        7.3662954081  CLST      68              1.0000000000
       337        68  DCM       H1             -2.6078688567        2.1737834744        6.6308073774  CLST      68              1.0000000000
       338        68  DCM       H2             -2.9986110678        3.9458284170        6.8543267957  CLST      68              1.0000000000
       339        68  DCM       CL1            -4.2208134696        2.5398260060        8.3586938842  CLST      68              1.0000000000
       340        68  DCM       CL2            -1.3669849137        3.1539297331        8.4141542016  CLST      68              1.0000000000
       341        69  DCM       C              -6.2102743328      -10.0801327571       -8.1467932779  CLST      69              1.0000000000
       342        69  DCM       H1             -6.5404897252       -9.8569035737       -7.1106676390  CLST      69              1.0000000000
       343        69  DCM       H2             -6.6610531719      -11.0265386529       -8.5141392524  CLST      69              1.0000000000
       344        69  DCM       CL1            -6.7161954856       -8.7396004999       -9.2163441425  CLST      69              1.0000000000
       345        69  DCM       CL2            -4.4293538609      -10.2355301667       -8.1685239884  CLST      69              1.0000000000
       346        70  DCM       C               6.6185963322        7.0494845199       -7.8112222935  CLST      70              1.0000000000
       347        70  DCM       H1              7.1617686857        6.0816603302       -7.8542481028  CLST      70              1.0000000000
       348        70  DCM       H2              7.3144671379        7.9023353902       -7.9620178771  CLST      70              1.0000000000
       349        70  DCM       CL1             5.3739914754        7.0807872758       -9.0948339270  CLST      70              1.0000000000
       350        70  DCM       CL2             5.8400501868        7.2051680026       -6.2103146192  CLST      70              1.0000000000
       351        71  DCM       C              -5.5843600078       -5.2370639254       -6.1648478674  CLST      71              1.0000000000
       352        71  DCM       H1             -5.5396672338       -4.7412961835       -7.1569718089  CLST      71              1.0000000000
       353        71  DCM       H2             -4.8085250884       -4.8337041685       -5.4821134844  CLST      71              1.0000000000
       354        71  DCM       CL1            -7.1923727347       -4.9450542272       -5.4436362049  CLST      71              1.0000000000
       355        71  DCM       CL2            -5.3161395114       -6.9910054575       -6.3811511057  CLST      71              1.0000000000
       356        72  DCM       C              -7.7904719250       -8.0466059386       -3.4344495465  CLST      72              1.0000000000
       357        72  DCM       H1             -8.6771759852       -7.5246891713       -3.0165638458  CLST      72              1.0000000000
       358        72  DCM       H2             -7.0105631823       -7.3213247293       -3.7467870641  CLST      72              1.0000000000
       359        72  DCM       CL1            -7.1036836456       -9.1216210164       -2.1845827217  CLST      72              1.0000000000
       360        72  DCM       CL2            -8.2919671430       -9.0039461851       -4.8565438793  CLST      72              1.0000000000
       361        73  DCM       C              -9.2000410276        9.2915266080        1.0925596057  CLST      73              1.0000000000
       362        73  DCM       H1             -9.4650970832       10.3680175167        1.0183053022  CLST      73              1.0000000000
       363        73  DCM       H2             -9.1365068143        8.9693146187        2.1520738435  CLST      73              1.0000000000
       364        73  DCM       CL1           -10.4540489299        8.3207131237        0.2672432024  CLST      73              1.0000000000
       365        73  DCM       CL2            -7.6123143278        9.0288765559        0.3129110440  CLST      73              1.0000000000
       366        74  DCM       C               1.6114876589       -1.3225916675       -1.8690188317  CLST      74              1.0000000000
       367        74  DCM       H1              0.5418023917       -1.3865499027       -1.5796120684  CLST      74              1.0000000000
       368        74  DCM       H2              2.2624447271       -1.7291023735       -1.0679842474  CLST      74              1.0000000000
       369        74  DCM       CL1             1.8681998126       -2.2653628381       -3.3594481437  CLST      74              1.0000000000
       370        74  DCM       CL2             2.0468798108        0.3842925728       -2.1616395210  CLST      74              1.0000000000
       371        75  DCM       C              -4.5558766898        2.4686705427        4.0022232194  CLST      75              1.0000000000
       372        75  DCM       H1             -3.8059839201        3.0551708724        4.5714180202  CLST      75              1.0000000000
       373        75  DCM       H2             -4.0620494911        1.7718808950        3.2924547633  CLST      75              1.0000000000
       374        75  DCM       CL1            -5.5509249637        1.5286712643        5.1475231735  CLST      75              1.0000000000
       375        75  DCM       CL2            -5.5906793605        3.5986717747        3.0889622070  CLST      75              1.0000000000
       376        76  DCM       C              -3.9764378921        6.9221228074        3.8331694974  CLST      76              1.0000000000
       377        76  DCM       H1             -4.9147227753        6.5119403849        4.2602530088  CLST      76              1.0000000000
       378        76  DCM       H2             -3.7491223451        7.9221085291        4.2579928530  CLST      76              1.0000000000
       379        76  DCM       CL1            -2.6285826956        5.8089896828        4.2080591249  CLST      76              1.0000000000
       380        76  DCM       CL2            -4.1750917820        7.0744364668        2.0638115116  CLST      76              1.0000000000
       381        77  DCM       C               1.3572653063      -10.3839117225        6.0784274067  CLST      77              1.0000000000
       382        77  DCM       H1              1.8609769521      -11.3501438939        5.8626117118  CLST      77              1.0000000000
       383        77  DCM       H2              1.1178845092      -10.2866459350        7.1586876423  CLST      77              1.0000000000
       384        77  DCM       CL1             2.4496075394       -9.0511821330        5.6089734998  CLST      77              1.0000000000
       385        77  DCM       CL2            -0.1589282363      -10.2933556479        5.1344001909  CLST      77              1.0000000000
       386        78  DCM       C              -8.4187357574       -2.0204001552       -0.3901113166  CLST      78              1.0000000000
       387        78  DCM       H1             -8.6872761257       -0.9560182666       -0.5519072322  CLST      78              1.0000000000
       388        78  DCM       H2             -8.6131400857       -2.6231522367       -1.3022668619  CLST      78              1.0000000000
       389        78  DCM       CL1            -6.6832414061       -2.1235214993        0.0199771838  CLST      78              1.0000000000
       390        78  DCM       CL2            -9.3956857616       -2.6696717340        0.9567304873  CLST      78              1.0000000000
       391        79  DCM       C              -7.3174673223       -2.0748495779        8.0106542130  CLST      79              1.0000000000
       392        79  DCM       H1             -6.4676284689       -2.7534461841        7.7884379094  CLST      79              1.0000000000
       393        79  DCM       H2             -8.0816955127       -2.1252423293        7.2075367311  CLST      79              1.0000000000
       394        79  DCM       CL1            -8.0627840718       -2.5621930017        9.5597176194  CLST      79              1.0000000000
       395        79  DCM       CL2            -6.7107198142       -0.3981772910        8.1331397282  CLST      79              1.0000000000
       396        80  DCM       C               4.2795845731      -10.3012714285        2.0309613602  CLST      80              1.0000000000
       397        80  DCM       H1              5.1080254509      -10.9053276884        2.4572223501  CLST      80              1.0000000000
       398        80  DCM       H2              4.3157613496      -10.3062470790        0.9227722704  CLST      80              1.0000000000
       399        80  DCM       CL1             4.4277587982       -8.6161682186        2.6071604648  CLST      80              1.0000000000
       400        80  DCM       CL2             2.7174316533      -10.9941224405        2.5556979643  CLST      80              1.0000000000
       401        81  DCM       C             -10.3908297648       11.3033571574        8.1641899781  CLST      81              1.0000000000
       402        81  DCM       H1            -10.5868211701       12.3862717240        8.0164658830  CLST      81              1.0000000000
       403        81  DCM       H2            -10.9803557145       10.9020208439        9.0154300883  CLST      81              1.0000000000
       404        81  DCM       CL1           -10.8468427479       10.4217459493        6.6785355618  CLST      81              1.0000000000
       405        81  DCM       CL2            -8.6511089446       11.0685441558        8.4983953224  CLST      81              1.0000000000
       406        82  DCM       C              -0.6665653732        9.4071977500        8.8247368556  CLST      82              1.0000000000
       407        82  DCM       H1              0.2005527735        8.8653207780        9.2580938292  CLST      82              1.0000000000
       408        82  DCM       H2             -1.1730941635        8.7898332152        8.0535294271  CLST      82              1.0000000000
       409        82  DCM       CL1            -1.8326639851        9.7826809699       10.1269462018  CLST      82              1.0000000000
       410        82  DCM       CL2            -0.0931678431       10.9222365203        8.0685664328  CLST      82              1.0000000000
       411        83  DCM       C              -4.0713765470       -8.9987166649        6.8367501168  CLST      83              1.0000000000
       412        83  DCM       H1             -4.2564863022       -8.1288067216        6.1726483716  CLST      83              1.0000000000
       413        83  DCM       H2             -3.0948613323       -9.4745625052        6.6048763877  CLST      83              1.0000000000
       414        83  DCM       CL1            -4.0637006257       -8.4407379729        8.5341508520  CLST      83              1.0000000000
       415        83  DCM       CL2            -5.3770483481      -10.1955968022        6.6032103441  CLST      83              1.0000000000
       416        84  DCM       C              -2.8065596238        4.8027286892       -0.4398642712  CLST      84              1.0000000000
       417        84  DCM       H1             -2.8825051604        4.1747006161       -1.3511881710  CLST      84              1.0000000000
       418        84  DCM       H2             -3.6946127140        5.4616207644       -0.3388819229  CLST      84              1.0000000000
       419        84  DCM       CL1            -2.7062531111        3.7366218299        0.9879961675  CLST      84              1.0000000000
       420        84  DCM       CL2            -1.3327015422        5.8088934565       -0.5428990305  CLST      84              1.0000000000
       421        85  DCM       C               3.5111574669       -6.7022504149        8.3068583525  CLST      85              1.0000000000
       422        85  DCM       H1              3.6701334438       -6.8940597767        7.2254488512  CLST      85              1.0000000000
       423        85  DCM       H2              4.4505408880       -6.3610223011        8.7908524620  CLST      85              1.0000000000
       424        85  DCM       CL1             2.2642953599       -5.4375161909        8.4979337961  CLST      85              1.0000000000
       425        85  DCM       CL2             2.9634210048       -8.2125837788        9.0916449078  CLST      85              1.0000000000
       426        86  DCM       C              -4.7658489986        9.5318336457       -6.6685226516  CLST      86              1.0000000000
       427        86  DCM       H1             -4.2506967389       10.5151998099       -6.6965090533  CLST      86              1.0000000000
       428        86  DCM       H2             -5.1435912441        9.3088130350       -5.6480960456  CLST      86              1.0000000000
       429        86  DCM       CL1            -6.1445038999        9.5644033884       -7.8066695289  CLST      86              1.0000000000
       430        86  DCM       CL2            -3.6105970047        8.2580932810       -7.1561145128  CLST      86              1.0000000000
       431        87  DCM       C               6.2908934257      -10.7238456922        6.5711150553  CLST      87              1.0000000000
       432        87  DCM       H1              7.3125504789      -10.8321111717        6.1492146348  CLST      87              1.0000000000
       433        87  DCM       H2              6.2078020414      -11.2376736242        7.5519359056  CLST      87              1.0000000000
       434        87  DCM       CL1             5.1175904872      -11.4483966964        5.4355097440  CLST      87              1.0000000000
       435        87  DCM       CL2             5.9319201959       -8.9870491467        6.7939451299  CLST      87              1.0000000000
       436        88  DCM       C              -0.5591700604       -3.7961616495       10.0891452621  CLST      88              1.0000000000
       437        88  DCM       H1              0.3471461460       -3.1695177455       10.2267146394  CLST      88              1.0000000000
       438        88  DCM       H2             -0.3962227455       -4.8231519956       10.4797821475  CLST      88              1.0000000000
       439        88  DCM       CL1            -1.9238162611       -3.0434864684       10.9632411641  CLST      88              1.0000000000
       440        88  DCM       CL2            -0.9392152122       -3.8917751992        8.3469433443  CLST      88              1.0000000000
       441        89  DCM       C               1.5355255233        4.5322148329        1.5107059179  CLST      89              1.0000000000
       442        89  DCM       H1              0.7381366645        4.9622056825        2.1533663422  CLST      89              1.0000000000
       443        89  DCM       H2              1.8870217905        5.2687687267        0.7576815159  CLST      89              1.0000000000
       444        89  DCM       CL1             2.9161262614        4.0389683242        2.5317836261  CLST      89              1.0000000000
       445        89  DCM       CL2             0.8830463524        3.1070383955        0.6586561874  CLST      89              1.0000000000
       446        90  DCM       C              -0.4815769571       -4.1777506487       -8.9990812010  CLST      90              1.0000000000
       447        90  DCM       H1             -0.7770505789       -4.1982227308      -10.0692694824  CLST      90              1.0000000000
       448        90  DCM       H2             -1.3362127995       -4.4420723517       -8.3423960639  CLST      90              1.0000000000
       449        90  DCM       CL1             0.0816989978       -2.5377279583       -8.5793735714  CLST      90              1.0000000000
       450        90  DCM       CL2             0.8352502272       -5.3537976764       -8.7358399593  CLST      90              1.0000000000
       451        91  DCM       C               3.9050077134        0.1175509882        1.5810024456  CLST      91              1.0000000000
       452        91  DCM       H1              4.1657038288        1.1817155476        1.7635836662  CLST      91              1.0000000000
       453        91  DCM       H2              4.2160025416       -0.5273959119        2.4283955244  CLST      91              1.0000000000
       454        91  DCM       CL1             2.1366929671       -0.0205674897        1.3857300288  CLST      91              1.0000000000
       455        91  DCM       CL2             4.7312969660       -0.4403471306        0.0984851373  CLST      91              1.0000000000
       456        92  DCM       C               5.8651045958       -0.9317920885       -4.5668517694  CLST      92              1.0000000000
       457        92  DCM       H1              5.0061613603       -1.6187849137       -4.7200851708  CLST      92              1.0000000000
       458        92  DCM       H2              6.7385965911       -1.4749839257       -4.1485020298  CLST      92              1.0000000000
       459        92  DCM       CL1             6.3312667798       -0.2084406113       -6.1340755932  CLST      92              1.0000000000
       460        92  DCM       CL2             5.3803846391        0.3558493570       -3.4287327712  CLST      92              1.0000000000
       461        93  DCM       C               2.1822389474        7.1424850816       -7.1941690424  CLST      93              1.0000000000
       462        93  DCM       H1              2.5568610562        6.6081894788       -8.0924815184  CLST      93              1.0000000000
       463        93  DCM       H2              2.7409582823        8.0885178631       -7.0306683572  CLST      93              1.0000000000
       464        93  DCM       CL1             0.4501620183        7.5199394462       -7.4287953203  CLST      93              1.0000000000
       465        93  DCM       CL2             2.3906973555        6.0897161775       -5.7639818322  CLST      93              1.0000000000
       466        94  DCM       C               4.3852106384       -2.9655967544       -7.6501662202  CLST      94              1.0000000000
       467        94  DCM       H1              4.1455836195       -3.5664226184       -8.5515974083  CLST      94              1.0000000000
       468        94  DCM       H2              4.6152757729       -1.9142533023       -7.9233922271  CLST      94              1.0000000000
       469        94  DCM       CL1             2.9773902650       -2.9868320586       -6.5539328116  CLST      94              1.0000000000
       470        94  DCM       CL2             5.8010863912       -3.6893113331       -6.8330196574  CLST      94              1.0000000000
       471        95  DCM       C              -0.9232344499       -0.7790754545       -5.4885343494  CLST      95              1.0000000000
       472        95  DCM       H1              0.1827820914       -0.7033250835       -5.4565992042  CLST      95              1.0000000000
       473        95  DCM       H2             -1.2538760963       -1.4520577486       -6.3059157355  CLST      95              1.0000000000
       474        95  DCM       CL1            -1.5036006758       -1.4280364552       -3.9315895073  CLST      95              1.0000000000
       475        95  DCM       CL2            -1.6195823140        0.8410216567       -5.7614789392  CLST      95              1.0000000000
       476        96  DCM       C               7.6442310702       -3.2543278192       -9.9857603671  CLST      96              1.0000000000
       477        96  DCM       H1              7.9312297895       -3.1312389701       -8.9198525347  CLST      96              1.0000000000
       478        96  DCM       H2              8.5254714252       -3.1401434035      -10.6519589266  CLST      96              1.0000000000
       479        96  DCM       CL1             6.9490978273       -4.8851149002      -10.2174196837  CLST      96              1.0000000000
       480        96  DCM       CL2             6.4303585912       -2.0118471735      -10.4091144271  CLST      96              1.0000000000
       481        97  DCM       C               7.6941675830        4.4550599940      -10.6996075259  CLST      97              1.0000000000
       482        97  DCM       H1              6.5907235485        4.5738567314      -10.6533465556  CLST      97              1.0000000000
       483        97  DCM       H2              7.9926590864        3.8244223561      -11.5634960281  CLST      97              1.0000000000
       484        97  DCM       CL1             8.4483411710        6.0671949368      -10.8705164358  CLST      97              1.0000000000
       485        97  DCM       CL2             8.2604679245        3.6803646771       -9.1908988136  CLST      97              1.0000000000
       486        98  DCM       C               2.9863453764      -10.5153223329       -5.1239580826  CLST      98              1.0000000000
       487        98  DCM       H1              2.1058857198      -11.1269504657       -5.4150099356  CLST      98              1.0000000000
       488        98  DCM       H2              3.6280342185      -10.2905335672       -6.0020202564  CLST      98              1.0000000000
       489        98  DCM       CL1             2.4128909890       -8.9813366438       -4.4142517815  CLST      98              1.0000000000
       490        98  DCM       CL2             3.9456372808      -11.4129489959       -3.9140112410  CLST      98              1.0000000000
