* CHARMM CGENFF SD/ABNR BEFORE MLPOT (MM ONLY)
*  DATE:     6/28/26      3:28: 2      CREATED BY USER: boittier
*
       100  EXT
         1         1  DCM       C               6.7554379347        5.3654106117       -1.0526474808  CLST      1               1.0000000000
         2         1  DCM       H1              7.3981168711        4.4837051726       -0.8504484752  CLST      1               1.0000000000
         3         1  DCM       H2              7.1985907904        6.2886174392       -0.6215711099  CLST      1               1.0000000000
         4         1  DCM       CL1             6.5884590569        5.5753804278       -2.8221646710  CLST      1               1.0000000000
         5         1  DCM       CL2             5.1481661006        5.0932482786       -0.3139527527  CLST      1               1.0000000000
         6         2  DCM       C              -3.6062600835       12.4369244253       -4.7503652474  CLST      2               1.0000000000
         7         2  DCM       H1             -2.9478349377       11.6405385314       -4.3455923626  CLST      2               1.0000000000
         8         2  DCM       H2             -4.0261401133       13.0621945233       -3.9338625297  CLST      2               1.0000000000
         9         2  DCM       CL1            -2.6515385694       13.4767513578       -5.8468702484  CLST      2               1.0000000000
        10         2  DCM       CL2            -4.9516761264       11.6748220070       -5.6479472854  CLST      2               1.0000000000
        11         3  DCM       C               5.3058727020       -2.3861783112        7.4117773416  CLST      3               1.0000000000
        12         3  DCM       H1              4.7358918064       -3.3259114893        7.5559987876  CLST      3               1.0000000000
        13         3  DCM       H2              5.4590486647       -2.1681983304        6.3357066610  CLST      3               1.0000000000
        14         3  DCM       CL1             4.3985690195       -1.0346615635        8.1557797089  CLST      3               1.0000000000
        15         3  DCM       CL2             6.9024678543       -2.5488816640        8.2034925000  CLST      3               1.0000000000
        16         4  DCM       C             -12.0010813035       10.0721399041       -6.7169122608  CLST      4               1.0000000000
        17         4  DCM       H1            -11.3739943015       10.8193798419       -6.1861144010  CLST      4               1.0000000000
        18         4  DCM       H2            -12.7640848105        9.6352382041       -6.0383203700  CLST      4               1.0000000000
        19         4  DCM       CL1           -12.8311865012       10.8754437169       -8.0818369990  CLST      4               1.0000000000
        20         4  DCM       CL2           -10.9493864250        8.7621278480       -7.3308224825  CLST      4               1.0000000000
        21         5  DCM       C              -4.9690964302       -1.7898477174      -11.7801424028  CLST      5               1.0000000000
        22         5  DCM       H1             -5.1360441255       -0.8862889395      -11.1559997651  CLST      5               1.0000000000
        23         5  DCM       H2             -4.7919687584       -2.6853909065      -11.1476651819  CLST      5               1.0000000000
        24         5  DCM       CL1            -6.4142810361       -2.0711957237      -12.7941923378  CLST      5               1.0000000000
        25         5  DCM       CL2            -3.5401061867       -1.5230710154      -12.8205419885  CLST      5               1.0000000000
        26         6  DCM       C               0.5701230111       -9.1297158579       -0.0054326564  CLST      6               1.0000000000
        27         6  DCM       H1              0.9108629078       -9.9985081841       -0.6103245554  CLST      6               1.0000000000
        28         6  DCM       H2              1.2846129443       -8.2832650241       -0.0813431888  CLST      6               1.0000000000
        29         6  DCM       CL1             0.4373600124       -9.6279393642        1.7066026051  CLST      6               1.0000000000
        30         6  DCM       CL2            -1.0257269853       -8.5973291568       -0.6084478009  CLST      6               1.0000000000
        31         7  DCM       C               3.5436188939        2.4995381798       13.6080063142  CLST      7               1.0000000000
        32         7  DCM       H1              2.5385936694        2.9726785225       13.5962374089  CLST      7               1.0000000000
        33         7  DCM       H2              4.2360403494        3.0468422241       14.2827351391  CLST      7               1.0000000000
        34         7  DCM       CL1             3.3841556881        0.8140713332       14.1820630228  CLST      7               1.0000000000
        35         7  DCM       CL2             4.2142759222        2.5153788377       11.9506067935  CLST      7               1.0000000000
        36         8  DCM       C              13.8601763199        9.4612375447        2.0940027577  CLST      8               1.0000000000
        37         8  DCM       H1             13.1567932035        8.6026229097        2.0564315154  CLST      8               1.0000000000
        38         8  DCM       H2             14.5808085809        9.4263610843        1.2496981859  CLST      8               1.0000000000
        39         8  DCM       CL1            12.9254680336       10.9823937587        1.9973450541  CLST      8               1.0000000000
        40         8  DCM       CL2            14.7666439894        9.4025629183        3.6340813315  CLST      8               1.0000000000
        41         9  DCM       C               1.4064001924        0.9453563937        8.7049670677  CLST      9               1.0000000000
        42         9  DCM       H1              2.3524862050        1.4408929215        8.3995679202  CLST      9               1.0000000000
        43         9  DCM       H2              1.4671152258       -0.1541827316        8.5616611955  CLST      9               1.0000000000
        44         9  DCM       CL1             1.1013221933        1.2886426620       10.4329068861  CLST      9               1.0000000000
        45         9  DCM       CL2             0.0652426982        1.5867652973        7.7117103154  CLST      9               1.0000000000
        46        10  DCM       C              -7.6510580689      -12.4130195502      -12.9293816356  CLST      10              1.0000000000
        47        10  DCM       H1             -7.6078083445      -11.3897941320      -12.4999201572  CLST      10              1.0000000000
        48        10  DCM       H2             -7.7588961674      -13.1782745152      -12.1318531730  CLST      10              1.0000000000
        49        10  DCM       CL1            -9.0548261763      -12.5215091418      -14.0315183386  CLST      10              1.0000000000
        50        10  DCM       CL2            -6.1420578296      -12.7272213089      -13.8357157118  CLST      10              1.0000000000
        51        11  DCM       C               9.8869957303        8.3942234704       -6.6082328956  CLST      11              1.0000000000
        52        11  DCM       H1             10.4758287050        8.9551525543       -7.3645065966  CLST      11              1.0000000000
        53        11  DCM       H2              9.5988795171        7.3911059094       -6.9880611989  CLST      11              1.0000000000
        54        11  DCM       CL1            10.8768617931        8.1952024213       -5.1323019973  CLST      11              1.0000000000
        55        11  DCM       CL2             8.4043224938        9.3171641021       -6.2247167506  CLST      11              1.0000000000
        56        12  DCM       C              -8.9185813153      -12.7992498209        0.9340047149  CLST      12              1.0000000000
        57        12  DCM       H1             -8.1164097297      -12.3651701336        0.3003986219  CLST      12              1.0000000000
        58        12  DCM       H2             -8.5003774500      -13.5056706381        1.6819624201  CLST      12              1.0000000000
        59        12  DCM       CL1            -9.7607168669      -11.4759834030        1.7923106675  CLST      12              1.0000000000
        60        12  DCM       CL2           -10.0738388189      -13.6765979323       -0.1113137176  CLST      12              1.0000000000
        61        13  DCM       C              -5.2295975462       -6.7281321492      -10.0190613409  CLST      13              1.0000000000
        62        13  DCM       H1             -4.6065489604       -6.2381132853       -9.2415647601  CLST      13              1.0000000000
        63        13  DCM       H2             -4.6157569531       -7.3900728308      -10.6662056074  CLST      13              1.0000000000
        64        13  DCM       CL1            -6.4931381396       -7.7081178888       -9.2189022050  CLST      13              1.0000000000
        65        13  DCM       CL2            -5.9911408106       -5.4683683992      -11.0337301935  CLST      13              1.0000000000
        66        14  DCM       C               7.0197689375        5.5838359679        3.2245440150  CLST      14              1.0000000000
        67        14  DCM       H1              6.3197560340        5.1363380938        3.9653435877  CLST      14              1.0000000000
        68        14  DCM       H2              6.4654743253        6.1497661994        2.4448250497  CLST      14              1.0000000000
        69        14  DCM       CL1             8.1288313190        6.6974850467        4.0745788716  CLST      14              1.0000000000
        70        14  DCM       CL2             7.9505774436        4.2766252015        2.4392529036  CLST      14              1.0000000000
        71        15  DCM       C              -3.8561603068       10.2990078853       -1.0049530699  CLST      15              1.0000000000
        72        15  DCM       H1             -4.3625224130        9.5374594080       -0.3662481823  CLST      15              1.0000000000
        73        15  DCM       H2             -3.0815316228       10.8500056721       -0.4234910668  CLST      15              1.0000000000
        74        15  DCM       CL1            -3.0719626925        9.4743330035       -2.3796253800  CLST      15              1.0000000000
        75        15  DCM       CL2            -5.0737938086       11.4598399773       -1.6003927357  CLST      15              1.0000000000
        76        16  DCM       C               5.2957500531       13.2209607259      -10.7790373103  CLST      16              1.0000000000
        77        16  DCM       H1              4.3111099127       12.7605351909      -10.5512085328  CLST      16              1.0000000000
        78        16  DCM       H2              6.1277645838       12.5215487907      -10.5512239951  CLST      16              1.0000000000
        79        16  DCM       CL1             5.3515518811       13.6442524228      -12.5153460763  CLST      16              1.0000000000
        80        16  DCM       CL2             5.4899511050       14.6962922094       -9.7878929038  CLST      16              1.0000000000
        81        17  DCM       C              -0.9500054679       -5.3896653359        2.6216842601  CLST      17              1.0000000000
        82        17  DCM       H1             -1.3172063160       -6.0442943473        3.4403525720  CLST      17              1.0000000000
        83        17  DCM       H2             -0.9579948733       -4.3212837572        2.9289594514  CLST      17              1.0000000000
        84        17  DCM       CL1            -2.0135773667       -5.5892501424        1.1994924403  CLST      17              1.0000000000
        85        17  DCM       CL2             0.7221305169       -5.8634596675        2.2011528858  CLST      17              1.0000000000
        86        18  DCM       C              12.6801539775      -11.7223139499       -9.4252657592  CLST      18              1.0000000000
        87        18  DCM       H1             12.9680393688      -10.7411580928       -8.9919190192  CLST      18              1.0000000000
        88        18  DCM       H2             12.8956447632      -12.5513963937       -8.7184941483  CLST      18              1.0000000000
        89        18  DCM       CL1            10.9289287017      -11.7067384508       -9.7858578863  CLST      18              1.0000000000
        90        18  DCM       CL2            13.6076689008      -11.9868067402      -10.9308236674  CLST      18              1.0000000000
        91        19  DCM       C               5.3601227217        5.8706472055      -10.6606023117  CLST      19              1.0000000000
        92        19  DCM       H1              4.6239914797        6.5853380087      -10.2363498567  CLST      19              1.0000000000
        93        19  DCM       H2              5.5049692236        6.0427907808      -11.7481636266  CLST      19              1.0000000000
        94        19  DCM       CL1             6.9265006955        6.0834916515       -9.8232145736  CLST      19              1.0000000000
        95        19  DCM       CL2             4.7599493767        4.2044212102      -10.4130099013  CLST      19              1.0000000000
        96        20  DCM       C              -6.7246341782        6.1068884903       -8.0133068023  CLST      20              1.0000000000
        97        20  DCM       H1             -6.3521970063        6.3251282602       -9.0365983359  CLST      20              1.0000000000
        98        20  DCM       H2             -7.7290911765        5.6340943632       -8.0451050549  CLST      20              1.0000000000
        99        20  DCM       CL1            -5.5830757273        4.9923695988       -7.2056715369  CLST      20              1.0000000000
       100        20  DCM       CL2            -6.8323315745        7.6376572878       -7.0949344070  CLST      20              1.0000000000
