* INITIAL
*  DATE:     6/28/26      2: 2:14      CREATED BY USER: boittier
*
       460  EXT
         1         1  DCM       C              -9.0857120130        4.0802767006        7.0788346826  CLST      1               1.0000000000
         2         1  DCM       H1            -10.0650776364        3.5568701412        6.9954252706  CLST      1               1.0000000000
         3         1  DCM       H2             -9.1319290667        5.0867018396        6.6185120154  CLST      1               1.0000000000
         4         1  DCM       CL1            -8.6613876225        4.2481764851        8.8063575188  CLST      1               1.0000000000
         5         1  DCM       CL2            -7.8394684990        3.1173529944        6.2365926428  CLST      1               1.0000000000
         6         2  DCM       C               2.8739804346        7.3739086542        5.3175544795  CLST      2               1.0000000000
         7         2  DCM       H1              2.9877298006        6.5883658812        6.0941406481  CLST      2               1.0000000000
         8         2  DCM       H2              2.6337765966        8.3551463406        5.7785986978  CLST      2               1.0000000000
         9         2  DCM       CL1             4.4023606892        7.5131369661        4.4023070138  CLST      2               1.0000000000
        10         2  DCM       CL2             1.5507594338        6.9081022836        4.2104126738  CLST      2               1.0000000000
        11         3  DCM       C              10.6425789378        4.8473275510        6.7986723356  CLST      3               1.0000000000
        12         3  DCM       H1             10.2909106599        3.9991536522        6.1705482084  CLST      3               1.0000000000
        13         3  DCM       H2             11.5193554839        4.5472822397        7.4089970946  CLST      3               1.0000000000
        14         3  DCM       CL1            11.1064030878        6.2096040732        5.7376789505  CLST      3               1.0000000000
        15         3  DCM       CL2             9.3175622330        5.3529981972        7.8871917589  CLST      3               1.0000000000
        16         4  DCM       C              -7.7907818158       -4.0052020503        5.3475946402  CLST      4               1.0000000000
        17         4  DCM       H1             -8.1988323644       -4.5007043169        4.4413541398  CLST      4               1.0000000000
        18         4  DCM       H2             -8.1753056071       -4.4860936426        6.2711053385  CLST      4               1.0000000000
        19         4  DCM       CL1            -6.0091367385       -4.1222772488        5.3207483004  CLST      4               1.0000000000
        20         4  DCM       CL2            -8.2791747280       -2.2892282966        5.3453209733  CLST      4               1.0000000000
        21         5  DCM       C               9.2326034764       -8.1837344987       -5.9675116096  CLST      5               1.0000000000
        22         5  DCM       H1              8.4670388763       -7.8382523556       -6.6928395701  CLST      5               1.0000000000
        23         5  DCM       H2              9.0043401383       -7.8147987589       -4.9451071751  CLST      5               1.0000000000
        24         5  DCM       CL1             9.2514050774       -9.9700963403       -5.9526003460  CLST      5               1.0000000000
        25         5  DCM       CL2            10.8328577777       -7.5638994752       -6.4672499635  CLST      5               1.0000000000
        26         6  DCM       C               7.7984975691        1.4115227426       -0.7179826391  CLST      6               1.0000000000
        27         6  DCM       H1              8.4161518227        0.6567770587       -0.1847077408  CLST      6               1.0000000000
        28         6  DCM       H2              8.1108355726        2.4421911654       -0.4518831144  CLST      6               1.0000000000
        29         6  DCM       CL1             6.0849994485        1.1805955013       -0.2659140882  CLST      6               1.0000000000
        30         6  DCM       CL2             7.9948181118        1.1876670273       -2.4792409909  CLST      6               1.0000000000
        31         7  DCM       C              -0.5348319890        1.2028639428        5.3089672255  CLST      7               1.0000000000
        32         7  DCM       H1             -0.2724230827        0.6740944865        6.2505687782  CLST      7               1.0000000000
        33         7  DCM       H2             -0.2389414890        0.6048115313        4.4220130936  CLST      7               1.0000000000
        34         7  DCM       CL1            -2.2994475602        1.4839271726        5.2619371501  CLST      7               1.0000000000
        35         7  DCM       CL2             0.3200164050        2.7679413926        5.2626616555  CLST      7               1.0000000000
        36         8  DCM       C               7.5195960550       -2.4189461216       -1.3512078183  CLST      8               1.0000000000
        37         8  DCM       H1              6.9903925618       -1.5623828048       -1.8192740195  CLST      8               1.0000000000
        38         8  DCM       H2              7.2293422397       -3.3772036448       -1.8347098288  CLST      8               1.0000000000
        39         8  DCM       CL1             9.2830993005       -2.1910212325       -1.5318555046  CLST      8               1.0000000000
        40         8  DCM       CL2             7.0968359171       -2.4889933981        0.3823378095  CLST      8               1.0000000000
        41         9  DCM       C               7.1317605871        5.2875989128       -3.9138872832  CLST      9               1.0000000000
        42         9  DCM       H1              6.3667349960        5.9243768857       -4.3980390316  CLST      9               1.0000000000
        43         9  DCM       H2              8.0935747909        5.8355174034       -3.8013375365  CLST      9               1.0000000000
        44         9  DCM       CL1             6.5444646938        4.8068209336       -2.2965673532  CLST      9               1.0000000000
        45         9  DCM       CL2             7.4019701919        3.8376020138       -4.9211952789  CLST      9               1.0000000000
        46        10  DCM       C              -7.8866713545        0.6498090437      -10.9415048747  CLST      10              1.0000000000
        47        10  DCM       H1             -6.8874123277        0.6643470816      -11.4259227189  CLST      10              1.0000000000
        48        10  DCM       H2             -8.5762760497       -0.0466378715      -11.4651709685  CLST      10              1.0000000000
        49        10  DCM       CL1            -7.7057181129        0.1185077751       -9.2451955412  CLST      10              1.0000000000
        50        10  DCM       CL2            -8.5827466528        2.2960860144      -10.9840161762  CLST      10              1.0000000000
        51        11  DCM       C               1.7432614094        1.8206409020       -8.0363704423  CLST      11              1.0000000000
        52        11  DCM       H1              2.5650935733        2.5242057412       -7.7879862580  CLST      11              1.0000000000
        53        11  DCM       H2              1.1895723875        2.1561866510       -8.9388339685  CLST      11              1.0000000000
        54        11  DCM       CL1             2.4394824074        0.2043546997       -8.3430466643  CLST      11              1.0000000000
        55        11  DCM       CL2             0.6144769392        1.7407244928       -6.6537554823  CLST      11              1.0000000000
        56        12  DCM       C              -1.7350393284        3.8854144525       -8.6792966792  CLST      12              1.0000000000
        57        12  DCM       H1             -2.6002474138        4.5641460746       -8.5261167260  CLST      12              1.0000000000
        58        12  DCM       H2             -0.9580987749        4.0498185944       -7.9045496652  CLST      12              1.0000000000
        59        12  DCM       CL1            -2.2983129613        2.1928437097       -8.5852001209  CLST      12              1.0000000000
        60        12  DCM       CL2            -1.0232632222        4.2022095978      -10.2860836232  CLST      12              1.0000000000
        61        13  DCM       C              -5.0638195252        6.6121265129       -4.3111387856  CLST      13              1.0000000000
        62        13  DCM       H1             -4.6515599732        5.6080367806       -4.5468855954  CLST      13              1.0000000000
        63        13  DCM       H2             -6.1356311555        6.5469104126       -4.0278317268  CLST      13              1.0000000000
        64        13  DCM       CL1            -4.1426105294        7.3126146318       -2.9485776036  CLST      13              1.0000000000
        65        13  DCM       CL2            -4.9057316879        7.6584775482       -5.7519957258  CLST      13              1.0000000000
        66        14  DCM       C             -13.7226122699        7.1525190755        2.2766646289  CLST      14              1.0000000000
        67        14  DCM       H1            -12.6163990254        7.1974197832        2.3725816933  CLST      14              1.0000000000
        68        14  DCM       H2            -14.0345867729        7.2514629419        1.2163797207  CLST      14              1.0000000000
        69        14  DCM       CL1           -14.4420418780        8.4880827876        3.2223790943  CLST      14              1.0000000000
        70        14  DCM       CL2           -14.3012663938        5.5828670626        2.9069957531  CLST      14              1.0000000000
        71        15  DCM       C              -5.3551275623        1.9171720479       10.5787970166  CLST      15              1.0000000000
        72        15  DCM       H1             -4.4394567904        2.3876795218       10.9928386109  CLST      15              1.0000000000
        73        15  DCM       H2             -6.2661500020        2.2973179434       11.0879625504  CLST      15              1.0000000000
        74        15  DCM       CL1            -5.4584157814        2.2958068120        8.8365233489  CLST      15              1.0000000000
        75        15  DCM       CL2            -5.2510369821        0.1483377965       10.8114659589  CLST      15              1.0000000000
        76        16  DCM       C               9.6296953436       -2.3857852508        6.8196027723  CLST      16              1.0000000000
        77        16  DCM       H1             10.3319181670       -2.5176595155        5.9703833813  CLST      16              1.0000000000
        78        16  DCM       H2              9.2722345885       -3.3644106040        7.1965960472  CLST      16              1.0000000000
        79        16  DCM       CL1            10.4713617778       -1.5326768030        8.1453384886  CLST      16              1.0000000000
        80        16  DCM       CL2             8.2275475019       -1.4271363270        6.2651018293  CLST      16              1.0000000000
        81        17  DCM       C              10.7401245648        8.5747180886        2.4960632658  CLST      17              1.0000000000
        82        17  DCM       H1             11.1176002489        8.6440274661        3.5382290356  CLST      17              1.0000000000
        83        17  DCM       H2             10.3290086455        9.5476933606        2.1526376163  CLST      17              1.0000000000
        84        17  DCM       CL1            12.0808730746        8.0942146710        1.4167012613  CLST      17              1.0000000000
        85        17  DCM       CL2             9.4480110594        7.3451008042        2.4298967529  CLST      17              1.0000000000
        86        18  DCM       C              10.9015377201       -6.2034836147       -2.8057055302  CLST      18              1.0000000000
        87        18  DCM       H1             11.5821726415       -6.8548113830       -3.3919142186  CLST      18              1.0000000000
        88        18  DCM       H2             11.4404410861       -5.7102336267       -1.9681315655  CLST      18              1.0000000000
        89        18  DCM       CL1            10.2334725867       -4.9466280562       -3.8856436689  CLST      18              1.0000000000
        90        18  DCM       CL2             9.5733051750       -7.1964011959       -2.1378207101  CLST      18              1.0000000000
        91        19  DCM       C               5.6477941417        6.6330634787        8.8346372164  CLST      19              1.0000000000
        92        19  DCM       H1              4.9438593373        6.3498736270        9.6473190460  CLST      19              1.0000000000
        93        19  DCM       H2              6.6951742480        6.6595300842        9.2016640954  CLST      19              1.0000000000
        94        19  DCM       CL1             5.5268931916        5.4305395421        7.5210902561  CLST      19              1.0000000000
        95        19  DCM       CL2             5.2041772409        8.2498251435        8.2149606109  CLST      19              1.0000000000
        96        20  DCM       C              -1.2369393807        6.6922021365       -5.5157968330  CLST      20              1.0000000000
        97        20  DCM       H1             -0.1576056415        6.7880416275       -5.2763222153  CLST      20              1.0000000000
        98        20  DCM       H2             -1.8487654045        7.3524442762       -4.8650699416  CLST      20              1.0000000000
        99        20  DCM       CL1            -1.5035443558        7.1555204256       -7.2226173467  CLST      20              1.0000000000
       100        20  DCM       CL2            -1.7382480837        4.9951742558       -5.2599313442  CLST      20              1.0000000000
       101        21  DCM       C              -0.0584837261       -0.4905517855      -16.3298489531  CLST      21              1.0000000000
       102        21  DCM       H1             -0.1621314673       -1.5948439401      -16.3810362654  CLST      21              1.0000000000
       103        21  DCM       H2              0.5438385580       -0.1033893984      -17.1790411268  CLST      21              1.0000000000
       104        21  DCM       CL1            -1.6850464513        0.2491713938      -16.3866670149  CLST      21              1.0000000000
       105        21  DCM       CL2             0.7567247974       -0.0537646348      -14.8006934803  CLST      21              1.0000000000
       106        22  DCM       C              11.6904577660        0.6250163625        5.2167053769  CLST      22              1.0000000000
       107        22  DCM       H1             12.3894396604        0.6949326662        4.3540917541  CLST      22              1.0000000000
       108        22  DCM       H2             11.5555921910       -0.4280685275        5.5323548067  CLST      22              1.0000000000
       109        22  DCM       CL1            10.1071889926        1.2985024002        4.7359228120  CLST      22              1.0000000000
       110        22  DCM       CL2            12.3533960375        1.5603598655        6.5874007629  CLST      22              1.0000000000
       111        23  DCM       C               6.4553354714       11.3888518620       -6.0000285620  CLST      23              1.0000000000
       112        23  DCM       H1              6.4066407378       11.6776423446       -7.0711476017  CLST      23              1.0000000000
       113        23  DCM       H2              6.7478140876       12.2522305316       -5.3654846315  CLST      23              1.0000000000
       114        23  DCM       CL1             4.8464438108       10.8063678545       -5.4822120461  CLST      23              1.0000000000
       115        23  DCM       CL2             7.6661631738       10.0879513019       -5.8046014693  CLST      23              1.0000000000
       116        24  DCM       C               9.6787090017        5.8065552457       -0.7361953086  CLST      24              1.0000000000
       117        24  DCM       H1              8.7459221101        5.4779843370       -0.2280627140  CLST      24              1.0000000000
       118        24  DCM       H2             10.5104751131        5.9134081010       -0.0113314650  CLST      24              1.0000000000
       119        24  DCM       CL1            10.1387720729        4.5863595861       -1.9588029862  CLST      24              1.0000000000
       120        24  DCM       CL2             9.3866332111        7.3858312771       -1.5213619520  CLST      24              1.0000000000
       121        25  DCM       C               4.3469564913        8.3498202415       -2.7596912698  CLST      25              1.0000000000
       122        25  DCM       H1              4.1006121677        7.9526952239       -1.7526318616  CLST      25              1.0000000000
       123        25  DCM       H2              3.8873214438        9.3476575826       -2.9196303753  CLST      25              1.0000000000
       124        25  DCM       CL1             6.1212058780        8.4966765836       -2.9032274936  CLST      25              1.0000000000
       125        25  DCM       CL2             3.7320261144        7.2199612279       -4.0010410208  CLST      25              1.0000000000
       126        26  DCM       C             -12.3982107079        1.3037150855       -9.5146993547  CLST      26              1.0000000000
       127        26  DCM       H1            -12.6263717577        2.3684191178       -9.7323968471  CLST      26              1.0000000000
       128        26  DCM       H2            -13.3052514452        0.7623279302       -9.1708498527  CLST      26              1.0000000000
       129        26  DCM       CL1           -11.7837910917        0.5264604327      -11.0026933409  CLST      26              1.0000000000
       130        26  DCM       CL2           -11.1549605329        1.2280626522       -8.2328378050  CLST      26              1.0000000000
       131        27  DCM       C              -3.2559231106       -5.0682292013        1.0901593823  CLST      27              1.0000000000
       132        27  DCM       H1             -2.3644458554       -5.6877957015        0.8584655365  CLST      27              1.0000000000
       133        27  DCM       H2             -4.1662290019       -5.4757361642        0.6000555296  CLST      27              1.0000000000
       134        27  DCM       CL1            -3.5076685581       -5.0542058279        2.8581011177  CLST      27              1.0000000000
       135        27  DCM       CL2            -2.9762006055       -3.4016035152        0.5083158383  CLST      27              1.0000000000
       136        28  DCM       C               0.7730794802       -3.2368264261        1.4280150745  CLST      28              1.0000000000
       137        28  DCM       H1              0.0171225148       -2.4366623737        1.5712693892  CLST      28              1.0000000000
       138        28  DCM       H2              1.7694661131       -2.9164558069        1.8010238447  CLST      28              1.0000000000
       139        28  DCM       CL1             0.8936797049       -3.6066273321       -0.3163070113  CLST      28              1.0000000000
       140        28  DCM       CL2             0.2538375442       -4.6971003395        2.3200710076  CLST      28              1.0000000000
       141        29  DCM       C             -11.8219683286       10.7339188766        4.5489574156  CLST      29              1.0000000000
       142        29  DCM       H1            -11.2567016504       11.6674241661        4.7554381906  CLST      29              1.0000000000
       143        29  DCM       H2            -12.7909194661       10.9561390997        4.0545709527  CLST      29              1.0000000000
       144        29  DCM       CL1           -10.8475869273        9.6875293270        3.4757598235  CLST      29              1.0000000000
       145        29  DCM       CL2           -12.1406269391        9.8895531324        6.0917688777  CLST      29              1.0000000000
       146        30  DCM       C               7.3769132352        1.9845436436        7.4397435518  CLST      30              1.0000000000
       147        30  DCM       H1              7.3513473480        1.4554500587        6.4661308221  CLST      30              1.0000000000
       148        30  DCM       H2              7.2237493823        3.0766355459        7.3067233227  CLST      30              1.0000000000
       149        30  DCM       CL1             6.0805560389        1.3480274385        8.4910343256  CLST      30              1.0000000000
       150        30  DCM       CL2             8.9666869300        1.7235089026        8.2121015280  CLST      30              1.0000000000
       151        31  DCM       C               5.9582328868       -0.9649369014        3.4357466222  CLST      31              1.0000000000
       152        31  DCM       H1              5.6747271658       -0.9779107732        4.5081053138  CLST      31              1.0000000000
       153        31  DCM       H2              6.4709402461       -1.9071607707        3.1544933704  CLST      31              1.0000000000
       154        31  DCM       CL1             4.4789178557       -0.7894457194        2.4418378946  CLST      31              1.0000000000
       155        31  DCM       CL2             7.0581044008        0.4120422843        3.1389796460  CLST      31              1.0000000000
       156        32  DCM       C               1.6834073631       10.1745957995       -7.6246464453  CLST      32              1.0000000000
       157        32  DCM       H1              1.0803031256       11.0433509061       -7.2882931541  CLST      32              1.0000000000
       158        32  DCM       H2              2.7309104860       10.4736474355       -7.8429354130  CLST      32              1.0000000000
       159        32  DCM       CL1             1.6914732518        8.9398101276       -6.3338510354  CLST      32              1.0000000000
       160        32  DCM       CL2             0.9511324426        9.4954086529       -9.1070424952  CLST      32              1.0000000000
       161        33  DCM       C               9.5339658602       -6.9455336258       -9.8840562710  CLST      33              1.0000000000
       162        33  DCM       H1             10.5661752260       -6.8187135971       -9.4931750338  CLST      33              1.0000000000
       163        33  DCM       H2              9.4774304527       -6.6807455056      -10.9594793922  CLST      33              1.0000000000
       164        33  DCM       CL1             9.0404399009       -8.6522576117       -9.6773278321  CLST      33              1.0000000000
       165        33  DCM       CL2             8.4315375078       -5.8800691257       -8.9627361564  CLST      33              1.0000000000
       166        34  DCM       C             -14.5039236787       -2.8065211704       -8.6248038318  CLST      34              1.0000000000
       167        34  DCM       H1            -13.8404928624       -3.6964798981       -8.5902364756  CLST      34              1.0000000000
       168        34  DCM       H2            -15.5703904846       -3.1018142488       -8.5323189233  CLST      34              1.0000000000
       169        34  DCM       CL1           -14.0804664362       -1.7077801142       -7.2791484369  CLST      34              1.0000000000
       170        34  DCM       CL2           -14.2680021044       -1.9680666194      -10.1851563617  CLST      34              1.0000000000
       171        35  DCM       C               2.6695514007       -7.2978898554        6.3981491080  CLST      35              1.0000000000
       172        35  DCM       H1              2.3903342462       -8.3481695229        6.6254425421  CLST      35              1.0000000000
       173        35  DCM       H2              2.0617005458       -6.5853536793        6.9965648506  CLST      35              1.0000000000
       174        35  DCM       CL1             4.3982851612       -7.0641352022        6.7875365497  CLST      35              1.0000000000
       175        35  DCM       CL2             2.3910785186       -6.9870462888        4.6599501180  CLST      35              1.0000000000
       176        36  DCM       C             -10.7538025562      -14.4447046242        1.0324896991  CLST      36              1.0000000000
       177        36  DCM       H1            -11.1710977862      -14.1960285365        2.0366228658  CLST      36              1.0000000000
       178        36  DCM       H2            -11.4801387541      -15.0261947908        0.4333131877  CLST      36              1.0000000000
       179        36  DCM       CL1           -10.3683123604      -12.9252659477        0.1738954685  CLST      36              1.0000000000
       180        36  DCM       CL2            -9.2678559082      -15.4144764572        1.2496508500  CLST      36              1.0000000000
       181        37  DCM       C              11.7957606722      -10.9686718340       -8.4850342454  CLST      37              1.0000000000
       182        37  DCM       H1             11.3715499222       -9.9897395054       -8.1715954882  CLST      37              1.0000000000
       183        37  DCM       H2             12.3950055457      -10.8650776035       -9.4127648014  CLST      37              1.0000000000
       184        37  DCM       CL1            10.4553570269      -12.1128141251       -8.7823899945  CLST      37              1.0000000000
       185        37  DCM       CL2            12.8453995587      -11.5874931902       -7.1777559566  CLST      37              1.0000000000
       186        38  DCM       C              -8.3950822151        0.0956536610        8.9404016940  CLST      38              1.0000000000
       187        38  DCM       H1             -7.8871902500        0.8172573907        8.2684654224  CLST      38              1.0000000000
       188        38  DCM       H2             -7.7107524583       -0.7286518459        9.2299023395  CLST      38              1.0000000000
       189        38  DCM       CL1            -8.9312048540        0.9502588786       10.4156084346  CLST      38              1.0000000000
       190        38  DCM       CL2            -9.8098892803       -0.5877724433        8.0903204720  CLST      38              1.0000000000
       191        39  DCM       C               3.6596743054        3.3220357252       -4.4366239323  CLST      39              1.0000000000
       192        39  DCM       H1              4.2258997736        4.2763415847       -4.3983756160  CLST      39              1.0000000000
       193        39  DCM       H2              3.7014043428        2.8728302415       -5.4496941048  CLST      39              1.0000000000
       194        39  DCM       CL1             4.3730539198        2.1794630305       -3.2628188934  CLST      39              1.0000000000
       195        39  DCM       CL2             1.9541052009        3.6385619512       -4.0059008644  CLST      39              1.0000000000
       196        40  DCM       C               5.1482729194       -3.4996475677        7.0610002144  CLST      40              1.0000000000
       197        40  DCM       H1              6.2125149870       -3.5984139861        7.3571361899  CLST      40              1.0000000000
       198        40  DCM       H2              4.5031766465       -4.1892577599        7.6452465669  CLST      40              1.0000000000
       199        40  DCM       CL1             4.6209536138       -1.8222378642        7.3675558899  CLST      40              1.0000000000
       200        40  DCM       CL2             4.9924239551       -3.8734199848        5.3192128773  CLST      40              1.0000000000
       201        41  DCM       C              -1.4305773150       -0.3530415818      -11.9849594028  CLST      41              1.0000000000
       202        41  DCM       H1             -1.5565033464       -0.0670844197      -13.0511693356  CLST      41              1.0000000000
       203        41  DCM       H2             -1.1031706062       -1.4093640285      -11.8907732998  CLST      41              1.0000000000
       204        41  DCM       CL1            -0.2000198058        0.7105771303      -11.2433346254  CLST      41              1.0000000000
       205        41  DCM       CL2            -2.9948147154       -0.1567757188      -11.1463659334  CLST      41              1.0000000000
       206        42  DCM       C              -5.5750531721        5.9595097945        8.0591748539  CLST      42              1.0000000000
       207        42  DCM       H1             -6.3628332103        5.8049387725        7.2927130089  CLST      42              1.0000000000
       208        42  DCM       H2             -5.7377649905        5.2973263735        8.9353763444  CLST      42              1.0000000000
       209        42  DCM       CL1            -5.6152391188        7.6601341893        8.6065650736  CLST      42              1.0000000000
       210        42  DCM       CL2            -3.9809227383        5.5890522056        7.3391190655  CLST      42              1.0000000000
       211        43  DCM       C              -4.8671770626       -9.8427531462        8.3244346851  CLST      43              1.0000000000
       212        43  DCM       H1             -4.9173707517       -8.8973784111        8.9058472745  CLST      43              1.0000000000
       213        43  DCM       H2             -5.8485099410      -10.0795418019        7.8624032344  CLST      43              1.0000000000
       214        43  DCM       CL1            -3.6449898137       -9.6674991898        7.0328841546  CLST      43              1.0000000000
       215        43  DCM       CL2            -4.4039041618      -11.1790753059        9.4162940759  CLST      43              1.0000000000
       216        44  DCM       C               6.1866509278        8.6089194133        1.4430015020  CLST      44              1.0000000000
       217        44  DCM       H1              5.1901304925        9.0938095465        1.5038326653  CLST      44              1.0000000000
       218        44  DCM       H2              6.5775364073        8.3712101811        2.4553497197  CLST      44              1.0000000000
       219        44  DCM       CL1             6.0388841389        7.0953180999        0.5076143043  CLST      44              1.0000000000
       220        44  DCM       CL2             7.3278751082        9.7134921075        0.6244730937  CLST      44              1.0000000000
       221        45  DCM       C               8.3513560513       11.4882165692       -2.3697671343  CLST      45              1.0000000000
       222        45  DCM       H1              8.8090704085       11.5638950600       -1.3610642429  CLST      45              1.0000000000
       223        45  DCM       H2              8.3778124085       10.4413372176       -2.7403708309  CLST      45              1.0000000000
       224        45  DCM       CL1             6.6505523850       12.0338337791       -2.2792451846  CLST      45              1.0000000000
       225        45  DCM       CL2             9.2621528311       12.5301390840       -3.5012337065  CLST      45              1.0000000000
       226        46  DCM       C               7.9956232669       -5.9602402449        4.7323906499  CLST      46              1.0000000000
       227        46  DCM       H1              6.9808965202       -6.2671168818        4.3926611429  CLST      46              1.0000000000
       228        46  DCM       H2              8.7637927068       -6.6942173157        4.4162784657  CLST      46              1.0000000000
       229        46  DCM       CL1             8.3851768898       -4.3663305684        4.0226817934  CLST      46              1.0000000000
       230        46  DCM       CL2             7.9983283354       -5.8503990558        6.5163822372  CLST      46              1.0000000000
       231        47  DCM       C             -13.9036648635       -5.2043864344      -11.9024856787  CLST      47              1.0000000000
       232        47  DCM       H1            -13.8381568521       -4.1747860319      -12.3106684449  CLST      47              1.0000000000
       233        47  DCM       H2            -13.8177616718       -5.9619709982      -12.7116334476  CLST      47              1.0000000000
       234        47  DCM       CL1           -12.5744350860       -5.4513488294      -10.7332903390  CLST      47              1.0000000000
       235        47  DCM       CL2           -15.4783310458       -5.4077352888      -11.0797320944  CLST      47              1.0000000000
       236        48  DCM       C              12.2194377079      -11.0329217421       -3.4384467244  CLST      48              1.0000000000
       237        48  DCM       H1             12.1572011548      -11.7833590737       -4.2535838524  CLST      48              1.0000000000
       238        48  DCM       H2             12.9257331656      -11.3640045510       -2.6474878439  CLST      48              1.0000000000
       239        48  DCM       CL1            12.7936089338       -9.4828482732       -4.1155169270  CLST      48              1.0000000000
       240        48  DCM       CL2            10.5973668077      -10.8197036078       -2.7199519098  CLST      48              1.0000000000
       241        49  DCM       C              -3.9412674083      -13.1750106915        5.3917545177  CLST      49              1.0000000000
       242        49  DCM       H1             -3.9729484095      -14.2011265571        4.9648167719  CLST      49              1.0000000000
       243        49  DCM       H2             -3.6115716925      -13.1892323675        6.4502652714  CLST      49              1.0000000000
       244        49  DCM       CL1            -2.7953457670      -12.1887669905        4.4380173410  CLST      49              1.0000000000
       245        49  DCM       CL2            -5.5774775566      -12.4607593905        5.3019379370  CLST      49              1.0000000000
       246        50  DCM       C               0.2759719748        6.2623932660        8.8865768837  CLST      50              1.0000000000
       247        50  DCM       H1             -0.5313997510        6.9163684071        9.2772233218  CLST      50              1.0000000000
       248        50  DCM       H2              0.4103328570        5.3664459620        9.5289469208  CLST      50              1.0000000000
       249        50  DCM       CL1            -0.1538029580        5.7336068916        7.2355173195  CLST      50              1.0000000000
       250        50  DCM       CL2             1.8082274760        7.1807175541        8.8463772546  CLST      50              1.0000000000
       251        51  DCM       C              -1.7676005776        2.6746269387        8.5746949340  CLST      51              1.0000000000
       252        51  DCM       H1             -2.5527053805        2.9624504656        7.8457882413  CLST      51              1.0000000000
       253        51  DCM       H2             -0.7544153874        2.8575334933        8.1580761771  CLST      51              1.0000000000
       254        51  DCM       CL1            -1.9686686900        3.6432014197       10.0625438772  CLST      51              1.0000000000
       255        51  DCM       CL2            -1.9365809891        0.9365072860        8.9536888057  CLST      51              1.0000000000
       256        52  DCM       C              -8.4271424094        8.6874648938        6.4567994265  CLST      52              1.0000000000
       257        52  DCM       H1             -7.5938840710        9.2685904715        6.9050047337  CLST      52              1.0000000000
       258        52  DCM       H2             -9.1351584001        9.3534965169        5.9213573159  CLST      52              1.0000000000
       259        52  DCM       CL1            -7.7536264605        7.5045703756        5.2978080986  CLST      52              1.0000000000
       260        52  DCM       CL2            -9.3043652332        7.8315130429        7.7584081896  CLST      52              1.0000000000
       261        53  DCM       C              -6.4782496381       -7.7096341754        5.5276158631  CLST      53              1.0000000000
       262        53  DCM       H1             -6.8938870570       -7.0154411653        4.7660198801  CLST      53              1.0000000000
       263        53  DCM       H2             -5.3777415772       -7.8021080748        5.4190551695  CLST      53              1.0000000000
       264        53  DCM       CL1            -6.8579045017       -7.0883422493        7.1583182334  CLST      53              1.0000000000
       265        53  DCM       CL2            -7.2247517968       -9.3173549608        5.3157975851  CLST      53              1.0000000000
       266        54  DCM       C             -12.4808212431        6.3062377560        6.1045630443  CLST      54              1.0000000000
       267        54  DCM       H1            -12.1424035454        6.8766509846        6.9955898869  CLST      54              1.0000000000
       268        54  DCM       H2            -13.3825698592        6.7710859606        5.6527333092  CLST      54              1.0000000000
       269        54  DCM       CL1           -11.1702638045        6.2875286375        4.8901487073  CLST      54              1.0000000000
       270        54  DCM       CL2           -12.8709391207        4.6334578710        6.5978225635  CLST      54              1.0000000000
       271        55  DCM       C               5.8564092043        7.3507700084       -7.1210538266  CLST      55              1.0000000000
       272        55  DCM       H1              6.9309477581        7.3062024815       -7.3993128775  CLST      55              1.0000000000
       273        55  DCM       H2              5.7257475678        7.7740462234       -6.1033285408  CLST      55              1.0000000000
       274        55  DCM       CL1             4.9954400874        8.3897267994       -8.2931666591  CLST      55              1.0000000000
       275        55  DCM       CL2             5.1778757071        5.6979108227       -7.1577236883  CLST      55              1.0000000000
       276        56  DCM       C              -3.2137273931        2.9923461243      -12.8680135962  CLST      56              1.0000000000
       277        56  DCM       H1             -2.9808635271        2.5955216977      -11.8574689166  CLST      56              1.0000000000
       278        56  DCM       H2             -3.5478469657        4.0492069977      -12.8081808029  CLST      56              1.0000000000
       279        56  DCM       CL1            -1.7419484114        2.9010793872      -13.8778085362  CLST      56              1.0000000000
       280        56  DCM       CL2            -4.5166275054        2.0076621371      -13.5965447930  CLST      56              1.0000000000
       281        57  DCM       C               2.4993264447       -0.6576587418       -4.5372996812  CLST      57              1.0000000000
       282        57  DCM       H1              2.2864427958        0.4281204543       -4.6187828588  CLST      57              1.0000000000
       283        57  DCM       H2              1.7322292130       -1.2558381597       -5.0720721871  CLST      57              1.0000000000
       284        57  DCM       CL1             4.1039950598       -0.9892881125       -5.2537685312  CLST      57              1.0000000000
       285        57  DCM       CL2             2.5026686908       -1.1156909121       -2.8085711253  CLST      57              1.0000000000
       286        58  DCM       C              -3.5844091453       -5.3788636519        7.9391706423  CLST      58              1.0000000000
       287        58  DCM       H1             -4.6862457437       -5.2474700692        7.9580829410  CLST      58              1.0000000000
       288        58  DCM       H2             -3.0668047194       -4.4065194683        8.0706430641  CLST      58              1.0000000000
       289        58  DCM       CL1            -3.1089833077       -6.4807984706        9.2628390087  CLST      58              1.0000000000
       290        58  DCM       CL2            -3.1042291339       -6.0848406508        6.3706930822  CLST      58              1.0000000000
       291        59  DCM       C             -12.0392621949       -2.1672048108        5.6538819549  CLST      59              1.0000000000
       292        59  DCM       H1            -11.1870301389       -1.7090588505        5.1091733177  CLST      59              1.0000000000
       293        59  DCM       H2            -12.4450759369       -1.4703972449        6.4173886331  CLST      59              1.0000000000
       294        59  DCM       CL1           -13.3293741072       -2.5632408333        4.4814684159  CLST      59              1.0000000000
       295        59  DCM       CL2           -11.4762292743       -3.6569280024        6.4671440442  CLST      59              1.0000000000
       296        60  DCM       C              12.9372276808       -4.3506183043        6.9574850830  CLST      60              1.0000000000
       297        60  DCM       H1             12.4506744766       -4.1806880128        7.9380133669  CLST      60              1.0000000000
       298        60  DCM       H2             13.8337828701       -5.0025053432        7.0616120968  CLST      60              1.0000000000
       299        60  DCM       CL1            11.7720844076       -5.1431980120        5.8553308889  CLST      60              1.0000000000
       300        60  DCM       CL2            13.4444936489       -2.7750909669        6.2805617718  CLST      60              1.0000000000
       301        61  DCM       C             -11.8297504377       -2.2352526157       -4.3704030033  CLST      61              1.0000000000
       302        61  DCM       H1            -11.7482267617       -3.2175648237       -4.8802089309  CLST      61              1.0000000000
       303        61  DCM       H2            -12.8835350293       -1.8833240647       -4.3465239910  CLST      61              1.0000000000
       304        61  DCM       CL1           -11.2323790647       -2.3968021382       -2.6917839123  CLST      61              1.0000000000
       305        61  DCM       CL2           -10.8405571548       -1.0377209720       -5.2564576875  CLST      61              1.0000000000
       306        62  DCM       C              -3.9899753206       -1.7423562544      -14.4455115454  CLST      62              1.0000000000
       307        62  DCM       H1             -3.6191710957       -0.7077172970      -14.2901340879  CLST      62              1.0000000000
       308        62  DCM       H2             -4.4065273690       -1.8663369798      -15.4670561118  CLST      62              1.0000000000
       309        62  DCM       CL1            -2.6288318433       -2.8816793182      -14.2284184983  CLST      62              1.0000000000
       310        62  DCM       CL2            -5.2697183213       -2.0829645386      -13.2436005124  CLST      62              1.0000000000
       311        63  DCM       C              -5.7155052385        0.1789026799        5.9160115555  CLST      63              1.0000000000
       312        63  DCM       H1             -5.2232243662        1.1677447473        6.0290074861  CLST      63              1.0000000000
       313        63  DCM       H2             -6.8179188537        0.2691680240        6.0065008240  CLST      63              1.0000000000
       314        63  DCM       CL1            -5.3184352088       -0.4851706229        4.3051297681  CLST      63              1.0000000000
       315        63  DCM       CL2            -5.1163492319       -0.9196777600        7.1920613436  CLST      63              1.0000000000
       316        64  DCM       C              13.1450457232      -15.0983070485       -2.8238054880  CLST      64              1.0000000000
       317        64  DCM       H1             13.7984657796      -15.8966330822       -2.4125391905  CLST      64              1.0000000000
       318        64  DCM       H2             12.2945300252      -15.5319776052       -3.3911911314  CLST      64              1.0000000000
       319        64  DCM       CL1            12.5027248044      -14.1176373233       -1.4736446444  CLST      64              1.0000000000
       320        64  DCM       CL2            14.1092739549      -14.0647711283       -3.9189379882  CLST      64              1.0000000000
       321        65  DCM       C               6.8073474718        4.9025725367        3.3245761489  CLST      65              1.0000000000
       322        65  DCM       H1              5.7216239780        4.8692940814        3.5487896981  CLST      65              1.0000000000
       323        65  DCM       H2              7.1477573126        5.9498203338        3.2023381739  CLST      65              1.0000000000
       324        65  DCM       CL1             7.7060658189        4.1476518540        4.6670368366  CLST      65              1.0000000000
       325        65  DCM       CL2             7.1196980324        4.0008555461        1.8171419356  CLST      65              1.0000000000
       326        66  DCM       C              -2.3824951127       -2.7162485275        5.1593131046  CLST      66              1.0000000000
       327        66  DCM       H1             -1.9858936151       -3.7497249490        5.0830584909  CLST      66              1.0000000000
       328        66  DCM       H2             -3.4899342999       -2.7173256144        5.2214122324  CLST      66              1.0000000000
       329        66  DCM       CL1            -1.7190143730       -1.9459139959        6.6264535626  CLST      66              1.0000000000
       330        66  DCM       CL2            -1.8840716715       -1.8015639432        3.7091129038  CLST      66              1.0000000000
       331        67  DCM       C              -2.6753286138       -2.2964063091       10.2862089834  CLST      67              1.0000000000
       332        67  DCM       H1             -3.0581868045       -1.9542198002        9.3013939846  CLST      67              1.0000000000
       333        67  DCM       H2             -2.4593022285       -1.4328751828       10.9495846446  CLST      67              1.0000000000
       334        67  DCM       CL1            -3.9121001779       -3.3290244364       11.0591716986  CLST      67              1.0000000000
       335        67  DCM       CL2            -1.1700476832       -3.2287845926       10.0387040859  CLST      67              1.0000000000
       336        68  DCM       C              -3.9770200446       -3.6474171659       -8.8611462386  CLST      68              1.0000000000
       337        68  DCM       H1             -4.6081087389       -4.5254334465       -8.6304269381  CLST      68              1.0000000000
       338        68  DCM       H2             -3.2097379982       -3.4848377031       -8.0667777754  CLST      68              1.0000000000
       339        68  DCM       CL1            -3.1467813434       -3.9110239583      -10.4227060774  CLST      68              1.0000000000
       340        68  DCM       CL2            -5.0107578090       -2.1944305540       -8.9668496747  CLST      68              1.0000000000
       341        69  DCM       C              10.1825679965       -1.8413505471        2.2396408971  CLST      69              1.0000000000
       342        69  DCM       H1              9.3149261184       -1.6055135259        2.8916218920  CLST      69              1.0000000000
       343        69  DCM       H2              9.9183866466       -2.6081554257        1.4812978037  CLST      69              1.0000000000
       344        69  DCM       CL1            10.7013953600       -0.3532122138        1.4018989689  CLST      69              1.0000000000
       345        69  DCM       CL2            11.5195678339       -2.4621570246        3.2468568161  CLST      69              1.0000000000
       346        70  DCM       C              -6.9635638143      -12.6649034245        1.7526480157  CLST      70              1.0000000000
       347        70  DCM       H1             -7.4061630525      -13.0006548925        0.7899588013  CLST      70              1.0000000000
       348        70  DCM       H2             -7.2186764479      -13.3640457784        2.5757374758  CLST      70              1.0000000000
       349        70  DCM       CL1            -5.1868673588      -12.5964142913        1.5754440003  CLST      70              1.0000000000
       350        70  DCM       CL2            -7.6016652540      -11.0432590164        2.1490422401  CLST      70              1.0000000000
       351        71  DCM       C              -4.2773341325       -9.3003497627        2.8202999247  CLST      71              1.0000000000
       352        71  DCM       H1             -3.8934100090       -9.9389018094        1.9966075483  CLST      71              1.0000000000
       353        71  DCM       H2             -4.8318068111       -9.9064657290        3.5668293684  CLST      71              1.0000000000
       354        71  DCM       CL1            -2.8939306428       -8.5054139228        3.6245567507  CLST      71              1.0000000000
       355        71  DCM       CL2            -5.3735433078       -8.0665572795        2.1342478330  CLST      71              1.0000000000
       356        72  DCM       C               7.4065283679        9.4941306721        5.6682003129  CLST      72              1.0000000000
       357        72  DCM       H1              7.8496013317        9.9067506446        6.5993030260  CLST      72              1.0000000000
       358        72  DCM       H2              6.3027845389        9.6154703920        5.6633459372  CLST      72              1.0000000000
       359        72  DCM       CL1             8.0934287090       10.3555103821        4.2611191068  CLST      72              1.0000000000
       360        72  DCM       CL2             7.7982405115        7.7545508674        5.5646126362  CLST      72              1.0000000000
       361        73  DCM       C               1.8609628393        6.0265313833       -8.7681224959  CLST      73              1.0000000000
       362        73  DCM       H1              2.5218919973        6.9117500642       -8.6748093687  CLST      73              1.0000000000
       363        73  DCM       H2              0.8669410693        6.3129031812       -9.1738402027  CLST      73              1.0000000000
       364        73  DCM       CL1             2.6259308119        4.8434937344       -9.8677674736  CLST      73              1.0000000000
       365        73  DCM       CL2             1.6438858262        5.2984298271       -7.1524289954  CLST      73              1.0000000000
       366        74  DCM       C             -10.2770124920       -7.8511714908        3.8230966696  CLST      74              1.0000000000
       367        74  DCM       H1            -11.2723357007       -7.6396066216        3.3774047989  CLST      74              1.0000000000
       368        74  DCM       H2            -10.1825885221       -8.9200005486        4.1084470590  CLST      74              1.0000000000
       369        74  DCM       CL1            -9.0105686990       -7.4587146806        2.6249485573  CLST      74              1.0000000000
       370        74  DCM       CL2           -10.0680012599       -6.8391879629        5.2816490181  CLST      74              1.0000000000
       371        75  DCM       C               3.6892427865        4.0807099112        0.0612498982  CLST      75              1.0000000000
       372        75  DCM       H1              3.1584961431        3.1144137481       -0.0712433177  CLST      75              1.0000000000
       373        75  DCM       H2              4.7809079989        3.9607877645       -0.0972530036  CLST      75              1.0000000000
       374        75  DCM       CL1             3.4023228713        4.6922996157        1.7140409639  CLST      75              1.0000000000
       375        75  DCM       CL2             3.0579662051        5.2606025583       -1.1191971960  CLST      75              1.0000000000
       376        76  DCM       C               2.6283428225        3.0094570029        8.3805616268  CLST      76              1.0000000000
       377        76  DCM       H1              3.6041571395        2.8007990072        7.8937148662  CLST      76              1.0000000000
       378        76  DCM       H2              2.0075910160        3.6816459928        7.7534392537  CLST      76              1.0000000000
       379        76  DCM       CL1             1.7635729044        1.4631462364        8.6178745282  CLST      76              1.0000000000
       380        76  DCM       CL2             2.9309914954        3.7907479766        9.9588446650  CLST      76              1.0000000000
       381        77  DCM       C             -13.5156512727       10.4817056396        0.0075743085  CLST      77              1.0000000000
       382        77  DCM       H1            -14.4189816372        9.8991368874        0.2885070883  CLST      77              1.0000000000
       383        77  DCM       H2            -13.6346244906       10.9476649502       -0.9931790342  CLST      77              1.0000000000
       384        77  DCM       CL1           -13.2561488626       11.7684494422        1.2207791948  CLST      77              1.0000000000
       385        77  DCM       CL2           -12.1031029474        9.3864852390       -0.0259930495  CLST      77              1.0000000000
       386        78  DCM       C               0.1110770360       16.4922535454       -2.6830623684  CLST      78              1.0000000000
       387        78  DCM       H1             -0.3850617995       16.4300892245       -1.6920085910  CLST      78              1.0000000000
       388        78  DCM       H2             -0.2907739377       15.7251858742       -3.3789584283  CLST      78              1.0000000000
       389        78  DCM       CL1            -0.1779791171       18.1147403917       -3.3770534400  CLST      78              1.0000000000
       390        78  DCM       CL2             1.8664715235       16.2246115171       -2.4751317791  CLST      78              1.0000000000
       391        79  DCM       C             -10.4008967906       -2.7995411041        1.4687595297  CLST      79              1.0000000000
       392        79  DCM       H1            -11.3700751601       -2.7052432838        0.9352268267  CLST      79              1.0000000000
       393        79  DCM       H2             -9.5773860452       -3.0364055576        0.7615099598  CLST      79              1.0000000000
       394        79  DCM       CL1           -10.0367024562       -1.2548575135        2.2913336130  CLST      79              1.0000000000
       395        79  DCM       CL2           -10.5268544722       -4.1110872471        2.6761294821  CLST      79              1.0000000000
       396        80  DCM       C              -5.8079765981        3.0506185825       -8.4454887682  CLST      80              1.0000000000
       397        80  DCM       H1             -5.3772207843        2.0348185001       -8.3161213061  CLST      80              1.0000000000
       398        80  DCM       H2             -6.9176600770        3.0209280879       -8.4026620038  CLST      80              1.0000000000
       399        80  DCM       CL1            -5.2031239780        4.1111283173       -7.1395414922  CLST      80              1.0000000000
       400        80  DCM       CL2            -5.3038528765        3.6960525130      -10.0348031719  CLST      80              1.0000000000
       401        81  DCM       C               6.8085619808       -3.7561581284       -6.0525277203  CLST      81              1.0000000000
       402        81  DCM       H1              5.7407805457       -3.4935325955       -6.2136408084  CLST      81              1.0000000000
       403        81  DCM       H2              7.3743816683       -3.7330164212       -7.0065761735  CLST      81              1.0000000000
       404        81  DCM       CL1             7.5307298816       -2.5739766983       -4.9223815972  CLST      81              1.0000000000
       405        81  DCM       CL2             6.9047656869       -5.4008566349       -5.3566429350  CLST      81              1.0000000000
       406        82  DCM       C              -1.0266480656       -1.2633774910       -8.2206481408  CLST      82              1.0000000000
       407        82  DCM       H1             -2.0740104390       -1.2951078264       -8.5843446012  CLST      82              1.0000000000
       408        82  DCM       H2             -0.5793448055       -0.2626841255       -8.3958456545  CLST      82              1.0000000000
       409        82  DCM       CL1            -1.0057964223       -1.6145442677       -6.4688418646  CLST      82              1.0000000000
       410        82  DCM       CL2            -0.0622688314       -2.4859936808       -9.0966190220  CLST      82              1.0000000000
       411        83  DCM       C               3.9840153391        2.3068934567        4.3306361148  CLST      83              1.0000000000
       412        83  DCM       H1              5.0393225537        2.3439643823        3.9719502678  CLST      83              1.0000000000
       413        83  DCM       H2              3.2823469250        2.1473804799        3.4912921839  CLST      83              1.0000000000
       414        83  DCM       CL1             3.8111902929        0.9733526089        5.5006705116  CLST      83              1.0000000000
       415        83  DCM       CL2             3.5970886482        3.8495217088        5.1367703421  CLST      83              1.0000000000
       416        84  DCM       C              -7.7783979932       -4.7144349509        9.8665278796  CLST      84              1.0000000000
       417        84  DCM       H1             -8.4995963670       -5.2658398711        9.2266104984  CLST      84              1.0000000000
       418        84  DCM       H2             -8.2967027009       -4.1933508175       10.6985639070  CLST      84              1.0000000000
       419        84  DCM       CL1            -6.6011372470       -5.8739263718       10.5496872332  CLST      84              1.0000000000
       420        84  DCM       CL2            -6.9241940950       -3.5046575434        8.8676175835  CLST      84              1.0000000000
       421        85  DCM       C              -3.6668076734       16.8965294171       -4.0546529257  CLST      85              1.0000000000
       422        85  DCM       H1             -4.7391871873       16.8958510781       -4.3434644443  CLST      85              1.0000000000
       423        85  DCM       H2             -3.2325980556       17.9161153773       -4.1303184136  CLST      85              1.0000000000
       424        85  DCM       CL1            -3.5187023066       16.3252458877       -2.3668108848  CLST      85              1.0000000000
       425        85  DCM       CL2            -2.7700646907       15.8005472144       -5.1463063531  CLST      85              1.0000000000
       426        86  DCM       C              12.2146533202       -8.8301375142       -0.2837790647  CLST      86              1.0000000000
       427        86  DCM       H1             11.2295003303       -9.2815419204       -0.0395022226  CLST      86              1.0000000000
       428        86  DCM       H2             12.2735934953       -8.5625264069       -1.3587934563  CLST      86              1.0000000000
       429        86  DCM       CL1            12.4368832035       -7.3488423878        0.6918988971  CLST      86              1.0000000000
       430        86  DCM       CL2            13.5049414063      -10.0103401094        0.0871170866  CLST      86              1.0000000000
       431        87  DCM       C             -10.5750204274       -2.2939697208       -8.7662936029  CLST      87              1.0000000000
       432        87  DCM       H1            -11.5129027055       -1.7068228937       -8.8393249490  CLST      87              1.0000000000
       433        87  DCM       H2             -9.7831742165       -1.7132269677       -8.2469595261  CLST      87              1.0000000000
       434        87  DCM       CL1           -10.8948428127       -3.7915781018       -7.8446332716  CLST      87              1.0000000000
       435        87  DCM       CL2           -10.0176113523       -2.6992822195      -10.4154613354  CLST      87              1.0000000000
       436        88  DCM       C               1.3845293682       -3.5171273822        5.4665859318  CLST      88              1.0000000000
       437        88  DCM       H1              0.3886092659       -3.8586751491        5.1182046955  CLST      88              1.0000000000
       438        88  DCM       H2              2.1906921364       -4.1392851168        5.0282543837  CLST      88              1.0000000000
       439        88  DCM       CL1             1.6300843580       -1.8207403229        4.9619246866  CLST      88              1.0000000000
       440        88  DCM       CL2             1.4466246947       -3.6442230865        7.2479910857  CLST      88              1.0000000000
       441        89  DCM       C             -11.2774297815      -14.7958026011       -2.9843229700  CLST      89              1.0000000000
       442        89  DCM       H1            -10.6126027830      -13.9257732845       -2.7785499069  CLST      89              1.0000000000
       443        89  DCM       H2            -11.3924815044      -14.9600586451       -4.0736629585  CLST      89              1.0000000000
       444        89  DCM       CL1           -10.5624211220      -16.2579574695       -2.2457026535  CLST      89              1.0000000000
       445        89  DCM       CL2           -12.8844332558      -14.4776705804       -2.2674814740  CLST      89              1.0000000000
       446        90  DCM       C              -6.5153190421       -2.8907782118        1.8996572696  CLST      90              1.0000000000
       447        90  DCM       H1             -7.2132923444       -2.4225775830        2.6233552766  CLST      90              1.0000000000
       448        90  DCM       H2             -5.4669853878       -2.8302300511        2.2631989153  CLST      90              1.0000000000
       449        90  DCM       CL1            -6.9621912667       -4.6075012590        1.6850153261  CLST      90              1.0000000000
       450        90  DCM       CL2            -6.6415317943       -2.0328557610        0.3380021178  CLST      90              1.0000000000
       451        91  DCM       C              11.2188696441        4.2783088324        2.6890864724  CLST      91              1.0000000000
       452        91  DCM       H1             11.4596225027        5.2457783184        2.2025975265  CLST      91              1.0000000000
       453        91  DCM       H2             10.4412601115        4.4032772856        3.4706766121  CLST      91              1.0000000000
       454        91  DCM       CL1            10.6138341727        3.1417780194        1.4520399087  CLST      91              1.0000000000
       455        91  DCM       CL2            12.7059658671        3.6322701719        3.4392648318  CLST      91              1.0000000000
       456        92  DCM       C              10.0050536355      -13.7353414584       -5.6028137049  CLST      92              1.0000000000
       457        92  DCM       H1             10.4056615068      -12.7005646305       -5.6219969920  CLST      92              1.0000000000
       458        92  DCM       H2              9.1052156588      -13.8238713556       -6.2481795165  CLST      92              1.0000000000
       459        92  DCM       CL1            11.2627136573      -14.8556784627       -6.2005111761  CLST      92              1.0000000000
       460        92  DCM       CL2             9.5659607059      -14.1585833524       -3.9230684960  CLST      92              1.0000000000
