* INITIAL
*  DATE:     6/28/26      2: 1:50      CREATED BY USER: boittier
*
       460  EXT
         1         1  DCM       C               3.9327122605       -6.8510351265       -0.0440036116  CLST      1               1.0000000000
         2         1  DCM       H1              3.6775183914       -7.1021859651        1.0059313237  CLST      1               1.0000000000
         3         1  DCM       H2              3.3926337069       -7.5097507323       -0.7564772577  CLST      1               1.0000000000
         4         1  DCM       CL1             3.4775917924       -5.1537633546       -0.3666375570  CLST      1               1.0000000000
         5         1  DCM       CL2             5.6898404114       -7.0707531635       -0.2781421890  CLST      1               1.0000000000
         6         2  DCM       C              -8.5130792442       -6.2661165282        6.0572980154  CLST      2               1.0000000000
         7         2  DCM       H1             -9.4256791901       -5.9392264675        5.5144820628  CLST      2               1.0000000000
         8         2  DCM       H2             -8.5585638256       -5.9663886433        7.1254993291  CLST      2               1.0000000000
         9         2  DCM       CL1            -8.3852695237       -8.0457485046        5.9577846473  CLST      2               1.0000000000
        10         2  DCM       CL2            -7.0831001378       -5.5080376641        5.2978695160  CLST      2               1.0000000000
        11         3  DCM       C              -0.1922032597       -0.1297725064       -6.8068163983  CLST      3               1.0000000000
        12         3  DCM       H1              0.3770700323       -0.6176974108       -5.9878474275  CLST      3               1.0000000000
        13         3  DCM       H2             -1.2822814332       -0.2873810618       -6.6794524728  CLST      3               1.0000000000
        14         3  DCM       CL1             0.1438546986        1.6262001745       -6.7947444181  CLST      3               1.0000000000
        15         3  DCM       CL2             0.3089033658       -0.8356018637       -8.3694824311  CLST      3               1.0000000000
        16         4  DCM       C               8.3848266527       -5.1662719374        1.3825358063  CLST      4               1.0000000000
        17         4  DCM       H1              8.5784902782       -4.9443236312        0.3129083697  CLST      4               1.0000000000
        18         4  DCM       H2              8.1794568944       -6.2469262791        1.5342219986  CLST      4               1.0000000000
        19         4  DCM       CL1             9.8191660170       -4.7029193307        2.3425666684  CLST      4               1.0000000000
        20         4  DCM       CL2             6.9658616522       -4.2241551652        1.9201482791  CLST      4               1.0000000000
        21         5  DCM       C               3.7382773550       -1.2251803551        6.3390764599  CLST      5               1.0000000000
        22         5  DCM       H1              4.0400823103       -2.0615085332        7.0021923899  CLST      5               1.0000000000
        23         5  DCM       H2              4.5525079821       -0.4755730729        6.2503287686  CLST      5               1.0000000000
        24         5  DCM       CL1             2.2864421019       -0.4344989306        7.0167942341  CLST      5               1.0000000000
        25         5  DCM       CL2             3.3679562478       -1.8732919651        4.7177678790  CLST      5               1.0000000000
        26         6  DCM       C              -2.4900615866        2.9381563518       -8.9303180601  CLST      6               1.0000000000
        27         6  DCM       H1             -3.0484643936        3.4050819143       -9.7685435948  CLST      6               1.0000000000
        28         6  DCM       H2             -1.3933160856        3.0415073729       -9.0732531994  CLST      6               1.0000000000
        29         6  DCM       CL1            -2.9559338292        3.7419100688       -7.4032841114  CLST      6               1.0000000000
        30         6  DCM       CL2            -2.9043762099        1.2014737005       -8.8523399465  CLST      6               1.0000000000
        31         7  DCM       C              -6.7210918191       -5.0326906707       -2.4407757894  CLST      7               1.0000000000
        32         7  DCM       H1             -5.8580544595       -5.2418381189       -1.7740233780  CLST      7               1.0000000000
        33         7  DCM       H2             -7.3749666551       -5.9246864044       -2.5358683217  CLST      7               1.0000000000
        34         7  DCM       CL1            -7.6766500919       -3.6881008160       -1.7541686384  CLST      7               1.0000000000
        35         7  DCM       CL2            -6.1129169962       -4.5893644660       -4.0623522391  CLST      7               1.0000000000
        36         8  DCM       C              13.3678189658       -4.1844826921       -3.5928808656  CLST      8               1.0000000000
        37         8  DCM       H1             13.9218499238       -4.0334318604       -4.5432855465  CLST      8               1.0000000000
        38         8  DCM       H2             12.7169258307       -5.0824041803       -3.6493606108  CLST      8               1.0000000000
        39         8  DCM       CL1            14.5409619194       -4.3934846200       -2.2605274225  CLST      8               1.0000000000
        40         8  DCM       CL2            12.3503997471       -2.7506078087       -3.2786641119  CLST      8               1.0000000000
        41         9  DCM       C               3.5685642834        2.7703044052        5.9769654299  CLST      9               1.0000000000
        42         9  DCM       H1              4.0340794888        2.2388986621        6.8357622544  CLST      9               1.0000000000
        43         9  DCM       H2              2.4626135083        2.7611515788        6.0558653338  CLST      9               1.0000000000
        44         9  DCM       CL1             4.1376975052        4.4634530583        5.9687085665  CLST      9               1.0000000000
        45         9  DCM       CL2             4.0558216207        1.9601513271        4.4606905811  CLST      9               1.0000000000
        46        10  DCM       C               3.9780931837      -10.3629194868        1.1551630307  CLST      10              1.0000000000
        47        10  DCM       H1              4.7877634785       -9.6307613733        1.3562343092  CLST      10              1.0000000000
        48        10  DCM       H2              4.2140651060      -11.3502273199        1.6061447322  CLST      10              1.0000000000
        49        10  DCM       CL1             2.4522417010       -9.7528933544        1.8606409032  CLST      10              1.0000000000
        50        10  DCM       CL2             3.7956849152      -10.5573191539       -0.6132595191  CLST      10              1.0000000000
        51        11  DCM       C               7.8470099376       -4.4310669662       -3.0329696876  CLST      11              1.0000000000
        52        11  DCM       H1              8.8504860022       -4.0077016947       -2.8178706480  CLST      11              1.0000000000
        53        11  DCM       H2              7.4590088276       -4.0557655339       -4.0030980987  CLST      11              1.0000000000
        54        11  DCM       CL1             7.9712680187       -6.2119677289       -3.1021955649  CLST      11              1.0000000000
        55        11  DCM       CL2             6.7184953412       -3.9554859179       -1.7319592638  CLST      11              1.0000000000
        56        12  DCM       C               3.3613518214       12.1247249308        2.4157683799  CLST      12              1.0000000000
        57        12  DCM       H1              3.4842151593       11.7091127139        1.3933854774  CLST      12              1.0000000000
        58        12  DCM       H2              3.0139537110       11.3441734828        3.1247274437  CLST      12              1.0000000000
        59        12  DCM       CL1             4.9361656717       12.7592245542        2.9725069611  CLST      12              1.0000000000
        60        12  DCM       CL2             2.1558130356       13.4420387307        2.3595888783  CLST      12              1.0000000000
        61        13  DCM       C             -13.3396896075       13.0083698379        1.6488499163  CLST      13              1.0000000000
        62        13  DCM       H1            -12.8309988817       12.6811064598        0.7176175455  CLST      13              1.0000000000
        63        13  DCM       H2            -13.0661653779       14.0530690041        1.9077404827  CLST      13              1.0000000000
        64        13  DCM       CL1           -15.1083338972       12.9108173466        1.4069596665  CLST      13              1.0000000000
        65        13  DCM       CL2           -12.8508684058       11.9307446259        2.9888601678  CLST      13              1.0000000000
        66        14  DCM       C              -6.2994343938       -0.4181294392       -2.0230376166  CLST      14              1.0000000000
        67        14  DCM       H1             -6.0843317971       -1.2099529710       -1.2751344693  CLST      14              1.0000000000
        68        14  DCM       H2             -7.3777371191       -0.1610246304       -2.0295829033  CLST      14              1.0000000000
        69        14  DCM       CL1            -5.3487661662        1.0387263700       -1.6122134827  CLST      14              1.0000000000
        70        14  DCM       CL2            -5.8455798824       -1.0084941632       -3.6472913832  CLST      14              1.0000000000
        71        15  DCM       C               7.9170218003        0.7853905547       -7.4327414511  CLST      15              1.0000000000
        72        15  DCM       H1              7.4505931040        0.2425626382       -6.5829564768  CLST      15              1.0000000000
        73        15  DCM       H2              7.6244487180        0.3336854360       -8.4038408466  CLST      15              1.0000000000
        74        15  DCM       CL1             7.3849264416        2.4915292238       -7.4011762808  CLST      15              1.0000000000
        75        15  DCM       CL2             9.6948368511        0.7074540311       -7.2661839380  CLST      15              1.0000000000
        76        16  DCM       C               3.1879725364        3.8208076725        1.3751499326  CLST      16              1.0000000000
        77        16  DCM       H1              2.4195405974        4.1998049785        0.6694203562  CLST      16              1.0000000000
        78        16  DCM       H2              2.8000051147        2.9599810721        1.9564794523  CLST      16              1.0000000000
        79        16  DCM       CL1             3.6553862607        5.1238614772        2.5012874211  CLST      16              1.0000000000
        80        16  DCM       CL2             4.6226363571        3.2977514553        0.4537456067  CLST      16              1.0000000000
        81        17  DCM       C              -3.0426548101        1.3038855477       -4.5716490504  CLST      17              1.0000000000
        82        17  DCM       H1             -2.8508565098        1.2907204743       -5.6653486325  CLST      17              1.0000000000
        83        17  DCM       H2             -4.1283379574        1.2295131790       -4.3579961251  CLST      17              1.0000000000
        84        17  DCM       CL1            -2.2079225028       -0.0799383038       -3.8142052889  CLST      17              1.0000000000
        85        17  DCM       CL2            -2.4240417978        2.8310112204       -3.8859704008  CLST      17              1.0000000000
        86        18  DCM       C               3.2592750880        6.5515200873       -1.2593063108  CLST      18              1.0000000000
        87        18  DCM       H1              3.6592143048        6.5286622920       -0.2252902181  CLST      18              1.0000000000
        88        18  DCM       H2              3.7116896114        5.7429933833       -1.8688668283  CLST      18              1.0000000000
        89        18  DCM       CL1             1.4870659629        6.3267280490       -1.2120548238  CLST      18              1.0000000000
        90        18  DCM       CL2             3.6447701101        8.1282052562       -2.0040763914  CLST      18              1.0000000000
        91        19  DCM       C              15.3769811611       -0.0245324237       -5.7759185384  CLST      19              1.0000000000
        92        19  DCM       H1             15.9843663969       -0.0971263066       -6.7028716427  CLST      19              1.0000000000
        93        19  DCM       H2             14.2954915164        0.0564022506       -6.0148537356  CLST      19              1.0000000000
        94        19  DCM       CL1            15.6426948718       -1.4881351239       -4.7849636209  CLST      19              1.0000000000
        95        19  DCM       CL2            15.8841118370        1.4258270831       -4.8610284852  CLST      19              1.0000000000
        96        20  DCM       C              -8.7452144406        4.6334136480        1.0404003340  CLST      20              1.0000000000
        97        20  DCM       H1             -9.2903332220        4.3685965603        0.1096899737  CLST      20              1.0000000000
        98        20  DCM       H2             -9.3472722932        4.3866560435        1.9403058836  CLST      20              1.0000000000
        99        20  DCM       CL1            -7.2092009020        3.7199991489        1.0987153464  CLST      20              1.0000000000
       100        20  DCM       CL2            -8.4080274404        6.3880958301        1.0344914054  CLST      20              1.0000000000
       101        21  DCM       C              -7.7201121572      -11.5125485855        4.7847289330  CLST      21              1.0000000000
       102        21  DCM       H1             -7.5295755165      -10.5080425644        4.3526629123  CLST      21              1.0000000000
       103        21  DCM       H2             -7.1873661561      -11.6377029219        5.7504690041  CLST      21              1.0000000000
       104        21  DCM       CL1            -9.4764881366      -11.6983121385        5.0595393273  CLST      21              1.0000000000
       105        21  DCM       CL2            -7.1509434125      -12.7583998175        3.6361073467  CLST      21              1.0000000000
       106        22  DCM       C               6.0839261224       11.0275125427       -2.4950642117  CLST      22              1.0000000000
       107        22  DCM       H1              5.7344551898       10.0436452574       -2.8720054597  CLST      22              1.0000000000
       108        22  DCM       H2              5.7644315197       11.8489138360       -3.1701204115  CLST      22              1.0000000000
       109        22  DCM       CL1             5.3928137648       11.3040510509       -0.8693617758  CLST      22              1.0000000000
       110        22  DCM       CL2             7.8690807971       11.0095362067       -2.4015105218  CLST      22              1.0000000000
       111        23  DCM       C              -6.7794758241       -1.9396708108       -8.5026514889  CLST      23              1.0000000000
       112        23  DCM       H1             -7.8139647249       -1.8691852138       -8.9017214042  CLST      23              1.0000000000
       113        23  DCM       H2             -6.7165474567       -1.5190246908       -7.4772050857  CLST      23              1.0000000000
       114        23  DCM       CL1            -6.2937287044       -3.6581992893       -8.4558180215  CLST      23              1.0000000000
       115        23  DCM       CL2            -5.6758557259       -1.0317409179       -9.5767201055  CLST      23              1.0000000000
       116        24  DCM       C               6.6516401788        8.0887842947       -6.5106383307  CLST      24              1.0000000000
       117        24  DCM       H1              6.5602450499        8.6231865382       -7.4796006934  CLST      24              1.0000000000
       118        24  DCM       H2              6.5612996549        6.9909077655       -6.6522534787  CLST      24              1.0000000000
       119        24  DCM       CL1             8.2464842886        8.4559022188       -5.7911545004  CLST      24              1.0000000000
       120        24  DCM       CL2             5.3523716916        8.6432830061       -5.4159719290  CLST      24              1.0000000000
       121        25  DCM       C               3.9130671433       16.4976548729        2.9227255924  CLST      25              1.0000000000
       122        25  DCM       H1              4.4864626665       15.7611000048        2.3211762023  CLST      25              1.0000000000
       123        25  DCM       H2              2.8415988968       16.5029648360        2.6316875663  CLST      25              1.0000000000
       124        25  DCM       CL1             4.0425223939       16.0625243677        4.6518661402  CLST      25              1.0000000000
       125        25  DCM       CL2             4.5975761043       18.1271654195        2.6545954106  CLST      25              1.0000000000
       126        26  DCM       C               5.5975390874        4.8577306434       -4.5403825554  CLST      26              1.0000000000
       127        26  DCM       H1              5.8664166572        4.1277402699       -5.3322778741  CLST      26              1.0000000000
       128        26  DCM       H2              6.2171276874        5.7746553646       -4.6151946255  CLST      26              1.0000000000
       129        26  DCM       CL1             3.8780045133        5.3107994200       -4.7167530293  CLST      26              1.0000000000
       130        26  DCM       CL2             5.8785155667        4.1109756795       -2.9424808978  CLST      26              1.0000000000
       131        27  DCM       C               8.3948319796        2.9124808923        1.3921164142  CLST      27              1.0000000000
       132        27  DCM       H1              9.4190177229        2.5676681100        1.6456062875  CLST      27              1.0000000000
       133        27  DCM       H2              8.3194238697        4.0193313142        1.4448830876  CLST      27              1.0000000000
       134        27  DCM       CL1             7.9985764308        2.3846929504       -0.2680943958  CLST      27              1.0000000000
       135        27  DCM       CL2             7.2338633992        2.1995262591        2.5484952362  CLST      27              1.0000000000
       136        28  DCM       C               3.1532096696        4.3274560320        9.5831976768  CLST      28              1.0000000000
       137        28  DCM       H1              2.9105870432        4.6974998152       10.6017874095  CLST      28              1.0000000000
       138        28  DCM       H2              2.8623744053        5.0681052991        8.8083946438  CLST      28              1.0000000000
       139        28  DCM       CL1             4.9143184154        4.0370507111        9.4761788057  CLST      28              1.0000000000
       140        28  DCM       CL2             2.2641951871        2.8028411899        9.2926595705  CLST      28              1.0000000000
       141        29  DCM       C               1.2181129504        2.6248257881       -3.3554278338  CLST      29              1.0000000000
       142        29  DCM       H1              1.4235050183        3.0485570007       -4.3610612237  CLST      29              1.0000000000
       143        29  DCM       H2              0.2588512111        3.0024950924       -2.9454315702  CLST      29              1.0000000000
       144        29  DCM       CL1             2.5307584041        3.0845134138       -2.2458534417  CLST      29              1.0000000000
       145        29  DCM       CL2             1.1491746245        0.8475783624       -3.4684979083  CLST      29              1.0000000000
       146        30  DCM       C              12.1505975378       -7.0125830204       -0.9330007934  CLST      30              1.0000000000
       147        30  DCM       H1             13.1360342462       -6.6364641829       -0.5839640502  CLST      30              1.0000000000
       148        30  DCM       H2             11.7041467953       -7.7102964652       -0.1941906848  CLST      30              1.0000000000
       149        30  DCM       CL1            11.0479915829       -5.6259998701       -1.1611364008  CLST      30              1.0000000000
       150        30  DCM       CL2            12.3736388037       -7.8687671531       -2.4860048194  CLST      30              1.0000000000
       151        31  DCM       C              10.3752009717       -0.0897966497        9.4064356305  CLST      31              1.0000000000
       152        31  DCM       H1              9.6402220828       -0.8023264531        9.8356946874  CLST      31              1.0000000000
       153        31  DCM       H2             11.4156548477       -0.4432739268        9.5673013971  CLST      31              1.0000000000
       154        31  DCM       CL1            10.0785389847        0.0616681648        7.6508776455  CLST      31              1.0000000000
       155        31  DCM       CL2            10.1721056198        1.5017836767       10.1946592484  CLST      31              1.0000000000
       156        32  DCM       C               2.5686377601       13.2762817656        6.2815484785  CLST      32              1.0000000000
       157        32  DCM       H1              3.2009885666       13.1379849390        5.3818117207  CLST      32              1.0000000000
       158        32  DCM       H2              2.9876720411       14.0634872269        6.9452906770  CLST      32              1.0000000000
       159        32  DCM       CL1             0.9259231519       13.7626975224        5.7695753983  CLST      32              1.0000000000
       160        32  DCM       CL2             2.4939035182       11.7341074454        7.1820427884  CLST      32              1.0000000000
       161        33  DCM       C               1.1837799463       -2.5470675201       -1.5263667582  CLST      33              1.0000000000
       162        33  DCM       H1              0.9104990758       -3.5197214282       -1.0679115365  CLST      33              1.0000000000
       163        33  DCM       H2              2.1774666600       -2.2050966423       -1.1661090097  CLST      33              1.0000000000
       164        33  DCM       CL1             1.2320204690       -2.7250451425       -3.3046892661  CLST      33              1.0000000000
       165        33  DCM       CL2            -0.0470384630       -1.3356654792       -1.0742391623  CLST      33              1.0000000000
       166        34  DCM       C              13.2599934099        0.7777319168       -2.5530187800  CLST      34              1.0000000000
       167        34  DCM       H1             13.7333999803        1.7664863749       -2.3726599016  CLST      34              1.0000000000
       168        34  DCM       H2             14.0267612420       -0.0101580329       -2.7098803539  CLST      34              1.0000000000
       169        34  DCM       CL1            12.2661067361        0.3411985768       -1.1333384531  CLST      34              1.0000000000
       170        34  DCM       CL2            12.2322786665        0.8868558992       -4.0122973081  CLST      34              1.0000000000
       171        35  DCM       C              -6.7701461373      -13.2185564810       -0.0468665000  CLST      35              1.0000000000
       172        35  DCM       H1             -6.9011213172      -13.7293866975       -1.0242629142  CLST      35              1.0000000000
       173        35  DCM       H2             -6.9877456528      -13.9072714260        0.7969101988  CLST      35              1.0000000000
       174        35  DCM       CL1            -5.0821845645      -12.6476922161        0.0894316930  CLST      35              1.0000000000
       175        35  DCM       CL2            -7.8884128650      -11.8269654418        0.0364337969  CLST      35              1.0000000000
       176        36  DCM       C               0.5629310662        0.6807015490        3.4327925314  CLST      36              1.0000000000
       177        36  DCM       H1              1.5980261622        0.3242569767        3.6127895654  CLST      36              1.0000000000
       178        36  DCM       H2              0.2470200803        0.4741036028        2.3880503084  CLST      36              1.0000000000
       179        36  DCM       CL1            -0.5450152898       -0.1647037271        4.5508227434  CLST      36              1.0000000000
       180        36  DCM       CL2             0.4897178972        2.4419370492        3.7250210264  CLST      36              1.0000000000
       181        37  DCM       C             -16.8031548747        6.1718176232       -1.9998171666  CLST      37              1.0000000000
       182        37  DCM       H1            -15.7427731328        6.2370684404       -1.6781597037  CLST      37              1.0000000000
       183        37  DCM       H2            -17.3184922691        7.1477709756       -1.8759747676  CLST      37              1.0000000000
       184        37  DCM       CL1           -16.8592404200        5.6949752815       -3.7216761216  CLST      37              1.0000000000
       185        37  DCM       CL2           -17.6356507266        4.9443398900       -1.0020884277  CLST      37              1.0000000000
       186        38  DCM       C             -10.1742840421        1.5525048348       -2.3220327376  CLST      38              1.0000000000
       187        38  DCM       H1            -11.1755384878        1.0826069191       -2.2393230481  CLST      38              1.0000000000
       188        38  DCM       H2             -9.5597676899        1.0349008748       -3.0881922065  CLST      38              1.0000000000
       189        38  DCM       CL1           -10.3749297679        3.2653965532       -2.7834697877  CLST      38              1.0000000000
       190        38  DCM       CL2            -9.3450461058        1.4530842621       -0.7438233492  CLST      38              1.0000000000
       191        39  DCM       C              -6.5806360382        2.7238913485      -10.2586814556  CLST      39              1.0000000000
       192        39  DCM       H1             -7.5376126135        2.9591862737      -10.7719525664  CLST      39              1.0000000000
       193        39  DCM       H2             -6.6955506543        1.8536414342       -9.5813869823  CLST      39              1.0000000000
       194        39  DCM       CL1            -5.3400007714        2.3429935107      -11.4885120046  CLST      39              1.0000000000
       195        39  DCM       CL2            -6.0758352716        4.1452202361       -9.3004261516  CLST      39              1.0000000000
       196        40  DCM       C               4.1224237024        1.3338200114       -5.7245623961  CLST      40              1.0000000000
       197        40  DCM       H1              3.7127109285        1.6720349167       -4.7500564129  CLST      40              1.0000000000
       198        40  DCM       H2              5.2221497186        1.1937986801       -5.6607055145  CLST      40              1.0000000000
       199        40  DCM       CL1             3.3614422807       -0.2185271549       -6.1779429301  CLST      40              1.0000000000
       200        40  DCM       CL2             3.7563368570        2.5616445183       -6.9692675730  CLST      40              1.0000000000
       201        41  DCM       C              -6.9370697471        5.0673624979       -2.2537872702  CLST      41              1.0000000000
       202        41  DCM       H1             -6.9797100715        5.8167116819       -1.4363341668  CLST      41              1.0000000000
       203        41  DCM       H2             -7.5134405166        4.1539844948       -1.9915967821  CLST      41              1.0000000000
       204        41  DCM       CL1            -7.6266223748        5.7876821084       -3.7366707017  CLST      41              1.0000000000
       205        41  DCM       CL2            -5.2310837022        4.6165293324       -2.5315316799  CLST      41              1.0000000000
       206        42  DCM       C             -13.0997301255       -0.8320625173       -0.4243148122  CLST      42              1.0000000000
       207        42  DCM       H1            -13.7250029052       -0.8543410291       -1.3419406928  CLST      42              1.0000000000
       208        42  DCM       H2            -13.5883883798       -1.3824229205        0.4074434841  CLST      42              1.0000000000
       209        42  DCM       CL1           -11.5165349699       -1.5874351393       -0.7735334619  CLST      42              1.0000000000
       210        42  DCM       CL2           -12.8615486692        0.8671864877        0.0712962559  CLST      42              1.0000000000
       211        43  DCM       C              -9.3702507144       -7.3776767524        2.3588518072  CLST      43              1.0000000000
       212        43  DCM       H1             -8.5225728278       -7.0105243101        2.9743686556  CLST      43              1.0000000000
       213        43  DCM       H2             -9.3082743359       -6.9870175717        1.3212338998  CLST      43              1.0000000000
       214        43  DCM       CL1           -10.9029176349       -6.8280445911        3.0953935290  CLST      43              1.0000000000
       215        43  DCM       CL2            -9.3215130995       -9.1638462834        2.3142064534  CLST      43              1.0000000000
       216        44  DCM       C               8.7556737195        0.1091688955       -3.0514888711  CLST      44              1.0000000000
       217        44  DCM       H1              9.6482629212        0.3895915682       -2.4551265941  CLST      44              1.0000000000
       218        44  DCM       H2              7.9432578995       -0.2675132288       -2.3970610820  CLST      44              1.0000000000
       219        44  DCM       CL1             9.2002350193       -1.1747727351       -4.2120265756  CLST      44              1.0000000000
       220        44  DCM       CL2             8.1667538097        1.5479806215       -3.9283570416  CLST      44              1.0000000000
       221        45  DCM       C              -3.1739797334       -3.3954764372       -6.6053432918  CLST      45              1.0000000000
       222        45  DCM       H1             -3.1407017607       -3.7057513239       -7.6714129892  CLST      45              1.0000000000
       223        45  DCM       H2             -3.8534754023       -4.0507508485       -6.0212900446  CLST      45              1.0000000000
       224        45  DCM       CL1            -1.5267652955       -3.4877464871       -5.9144891272  CLST      45              1.0000000000
       225        45  DCM       CL2            -3.7774082244       -1.7183316217       -6.5102706600  CLST      45              1.0000000000
       226        46  DCM       C             -14.3198864973        9.0992894809        1.2810647104  CLST      46              1.0000000000
       227        46  DCM       H1            -14.9218951141        9.8854019681        1.7842634718  CLST      46              1.0000000000
       228        46  DCM       H2            -13.4758505885        8.7725632413        1.9245833229  CLST      46              1.0000000000
       229        46  DCM       CL1           -13.6690616862        9.7550285357       -0.2494212371  CLST      46              1.0000000000
       230        46  DCM       CL2           -15.3695126521        7.6944012458        0.9398408416  CLST      46              1.0000000000
       231        47  DCM       C               9.9101084844        5.0848148382       -1.7647678965  CLST      47              1.0000000000
       232        47  DCM       H1              8.8292679132        4.8301319833       -1.8115630779  CLST      47              1.0000000000
       233        47  DCM       H2             10.1781408788        5.8244819000       -2.5486187960  CLST      47              1.0000000000
       234        47  DCM       CL1            10.2806314916        5.7779984120       -0.1601114488  CLST      47              1.0000000000
       235        47  DCM       CL2            10.8679195554        3.5982363428       -2.0151895889  CLST      47              1.0000000000
       236        48  DCM       C              -6.2479065969       -9.1568632049       -1.6377007768  CLST      48              1.0000000000
       237        48  DCM       H1             -6.9007187865       -9.6639479778       -2.3791041461  CLST      48              1.0000000000
       238        48  DCM       H2             -5.6791670863       -9.8966947434       -1.0372551229  CLST      48              1.0000000000
       239        48  DCM       CL1            -5.0959467247       -8.1012149721       -2.4992749316  CLST      48              1.0000000000
       240        48  DCM       CL2            -7.2638250542       -8.1748596967       -0.5468327284  CLST      48              1.0000000000
       241        49  DCM       C              -6.9655423878       -8.1937231038       -5.7389089064  CLST      49              1.0000000000
       242        49  DCM       H1             -5.9804993612       -8.1655954593       -5.2296298494  CLST      49              1.0000000000
       243        49  DCM       H2             -7.1058512883       -9.1523262448       -6.2813962648  CLST      49              1.0000000000
       244        49  DCM       CL1            -8.2588459240       -8.0152831016       -4.5178318226  CLST      49              1.0000000000
       245        49  DCM       CL2            -7.0447434982       -6.8447863889       -6.9071443695  CLST      49              1.0000000000
       246        50  DCM       C               0.1146374390       -6.9916037620       -0.9822168355  CLST      50              1.0000000000
       247        50  DCM       H1             -0.9965793126       -7.0118658863       -0.9553028903  CLST      50              1.0000000000
       248        50  DCM       H2              0.5275428979       -6.4791043841       -0.0892990033  CLST      50              1.0000000000
       249        50  DCM       CL1             0.6531640111       -6.1276244028       -2.4491448264  CLST      50              1.0000000000
       250        50  DCM       CL2             0.7252009071       -8.6666472246       -1.0189336481  CLST      50              1.0000000000
       251        51  DCM       C               1.6041514048       -6.1121832578        3.1974585442  CLST      51              1.0000000000
       252        51  DCM       H1              0.7426248222       -5.4384266567        3.4107589143  CLST      51              1.0000000000
       253        51  DCM       H2              1.4856728151       -6.6083417621        2.2143001330  CLST      51              1.0000000000
       254        51  DCM       CL1             1.6989870669       -7.3549104513        4.4753412480  CLST      51              1.0000000000
       255        51  DCM       CL2             3.1062609383       -5.1497843197        3.1895913000  CLST      51              1.0000000000
       256        52  DCM       C               6.0114994752       -4.4365113743        5.3927348572  CLST      52              1.0000000000
       257        52  DCM       H1              5.6130960274       -4.7932411584        4.4210033273  CLST      52              1.0000000000
       258        52  DCM       H2              5.9991926735       -3.3294090125        5.4421384303  CLST      52              1.0000000000
       259        52  DCM       CL1             5.0002635904       -5.0847993666        6.7149600135  CLST      52              1.0000000000
       260        52  DCM       CL2             7.6933814439       -5.0126047373        5.5701490610  CLST      52              1.0000000000
       261        53  DCM       C             -14.7660253925        3.3072297663        3.8339001252  CLST      53              1.0000000000
       262        53  DCM       H1            -15.2300624668        3.9531759228        3.0583759797  CLST      53              1.0000000000
       263        53  DCM       H2            -15.4347758751        3.1952283856        4.7132265468  CLST      53              1.0000000000
       264        53  DCM       CL1           -14.4546266147        1.6924746557        3.1348951766  CLST      53              1.0000000000
       265        53  DCM       CL2           -13.2260613924        4.0453244393        4.3627741372  CLST      53              1.0000000000
       266        54  DCM       C              -0.4287156643        6.4809723496        3.4081471290  CLST      54              1.0000000000
       267        54  DCM       H1             -0.4208777887        7.5647298515        3.1666992585  CLST      54              1.0000000000
       268        54  DCM       H2             -1.3998730108        6.1771168351        3.8505248306  CLST      54              1.0000000000
       269        54  DCM       CL1            -0.1587059304        5.5556715510        1.9037805372  CLST      54              1.0000000000
       270        54  DCM       CL2             0.8796611121        6.1375880744        4.5774723516  CLST      54              1.0000000000
       271        55  DCM       C              -1.9732910887        1.7244332340       -0.3031590842  CLST      55              1.0000000000
       272        55  DCM       H1             -2.7020468039        2.5565772980       -0.4025708774  CLST      55              1.0000000000
       273        55  DCM       H2             -1.9270179673        1.1230500464       -1.2345602266  CLST      55              1.0000000000
       274        55  DCM       CL1            -0.3526371887        2.4010293702        0.0278840912  CLST      55              1.0000000000
       275        55  DCM       CL2            -2.4764551163        0.6624395302        1.0440681977  CLST      55              1.0000000000
       276        56  DCM       C              -1.9708613936       -7.6417350584        3.9358261606  CLST      56              1.0000000000
       277        56  DCM       H1             -1.2250665147       -7.8765002685        4.7246278387  CLST      56              1.0000000000
       278        56  DCM       H2             -2.8942784295       -8.2425541761        4.0721081733  CLST      56              1.0000000000
       279        56  DCM       CL1            -2.3916869426       -5.9087786680        4.0327467108  CLST      56              1.0000000000
       280        56  DCM       CL2            -1.2667764287       -8.0083438336        2.3340461345  CLST      56              1.0000000000
       281        57  DCM       C              -9.9941182472        9.7321495235        0.3516184980  CLST      57              1.0000000000
       282        57  DCM       H1            -10.6417164268        9.2442377006       -0.4054460541  CLST      57              1.0000000000
       283        57  DCM       H2             -8.9311207818        9.4384080330        0.2177156228  CLST      57              1.0000000000
       284        57  DCM       CL1           -10.1379559467       11.5049208978        0.1772747905  CLST      57              1.0000000000
       285        57  DCM       CL2           -10.5341770177        9.2372632726        1.9817054496  CLST      57              1.0000000000
       286        58  DCM       C              13.2410712816       -2.7715480765        0.7888360064  CLST      58              1.0000000000
       287        58  DCM       H1             12.6214204910       -2.8510165600       -0.1308960300  CLST      58              1.0000000000
       288        58  DCM       H2             14.2272260340       -2.3147027738        0.5627387268  CLST      58              1.0000000000
       289        58  DCM       CL1            12.3882419768       -1.7541242916        1.9855078520  CLST      58              1.0000000000
       290        58  DCM       CL2            13.4942842148       -4.4082535361        1.4591006805  CLST      58              1.0000000000
       291        59  DCM       C              10.0819515124        6.5307710458       -8.4493157655  CLST      59              1.0000000000
       292        59  DCM       H1             10.2352364129        6.6942006320       -7.3614874250  CLST      59              1.0000000000
       293        59  DCM       H2             10.1337878767        7.4890328347       -9.0081775237  CLST      59              1.0000000000
       294        59  DCM       CL1            11.3547618091        5.4325011551       -9.0561694764  CLST      59              1.0000000000
       295        59  DCM       CL2             8.4741518010        5.7934351577       -8.7075783058  CLST      59              1.0000000000
       296        60  DCM       C              14.2998460585        3.3701316337       -7.6137356708  CLST      60              1.0000000000
       297        60  DCM       H1             13.9884295014        4.2762573578       -8.1747045480  CLST      60              1.0000000000
       298        60  DCM       H2             14.5319129890        3.6163344261       -6.5560443767  CLST      60              1.0000000000
       299        60  DCM       CL1            12.9711347255        2.1757563655       -7.6535126527  CLST      60              1.0000000000
       300        60  DCM       CL2            15.7563378923        2.6794432897       -8.3862195802  CLST      60              1.0000000000
       301        61  DCM       C               9.1689995480       -1.2838029132        0.5871583508  CLST      61              1.0000000000
       302        61  DCM       H1              9.6928203750       -0.3049745407        0.5861018161  CLST      61              1.0000000000
       303        61  DCM       H2              9.2929252916       -1.8059451521        1.5582124119  CLST      61              1.0000000000
       304        61  DCM       CL1             9.8410526607       -2.3120615365       -0.7046102372  CLST      61              1.0000000000
       305        61  DCM       CL2             7.4315850166       -1.0184438911        0.2936234355  CLST      61              1.0000000000
       306        62  DCM       C             -15.4439455391        2.4225193701       -2.7714026487  CLST      62              1.0000000000
       307        62  DCM       H1            -15.2667646001        3.4493336487       -2.3901827963  CLST      62              1.0000000000
       308        62  DCM       H2            -16.1648979424        2.4317349998       -3.6160248997  CLST      62              1.0000000000
       309        62  DCM       CL1           -13.8907541662        1.7392667970       -3.3330725232  CLST      62              1.0000000000
       310        62  DCM       CL2           -16.1078466682        1.4205385546       -1.4481815942  CLST      62              1.0000000000
       311        63  DCM       C              -1.6754544676      -11.1596143326        0.0252655017  CLST      63              1.0000000000
       312        63  DCM       H1             -0.7384006276      -10.7790316581        0.4843872760  CLST      63              1.0000000000
       313        63  DCM       H2             -2.2269296981      -11.8150872826        0.7317129621  CLST      63              1.0000000000
       314        63  DCM       CL1            -2.7131425435       -9.7738662077       -0.4130717085  CLST      63              1.0000000000
       315        63  DCM       CL2            -1.2716357845      -12.0925675126       -1.4445761468  CLST      63              1.0000000000
       316        64  DCM       C              -8.1643271053       -0.5312102542      -12.1823347819  CLST      64              1.0000000000
       317        64  DCM       H1             -8.6686733602       -0.2484855081      -13.1306246174  CLST      64              1.0000000000
       318        64  DCM       H2             -7.1043234206       -0.2000484691      -12.1791615890  CLST      64              1.0000000000
       319        64  DCM       CL1            -9.0228227980        0.2376627865      -10.8149928148  CLST      64              1.0000000000
       320        64  DCM       CL2            -8.2174216816       -2.3094874600      -12.0043297445  CLST      64              1.0000000000
       321        65  DCM       C              10.4230464120        3.9531004211       -5.6548787262  CLST      65              1.0000000000
       322        65  DCM       H1             10.3616310911        3.7300196282       -6.7410168285  CLST      65              1.0000000000
       323        65  DCM       H2             10.4354472212        3.0162410500       -5.0597808535  CLST      65              1.0000000000
       324        65  DCM       CL1            11.9192223803        4.8729910556       -5.3239945742  CLST      65              1.0000000000
       325        65  DCM       CL2             9.0033156442        4.9265166769       -5.1794228234  CLST      65              1.0000000000
       326        66  DCM       C               7.6857894925       -3.4279609923        8.9558239660  CLST      66              1.0000000000
       327        66  DCM       H1              7.1680560608       -4.3764526507        8.7002146753  CLST      66              1.0000000000
       328        66  DCM       H2              7.5589463543       -3.1826902756       10.0315112084  CLST      66              1.0000000000
       329        66  DCM       CL1             9.4276345880       -3.6013101907        8.5961199098  CLST      66              1.0000000000
       330        66  DCM       CL2             6.9982085651       -2.1061464680        7.9703791531  CLST      66              1.0000000000
       331        67  DCM       C              -2.8361364986       -3.2792119695       -2.6508206470  CLST      67              1.0000000000
       332        67  DCM       H1             -1.7941891943       -2.9689370183       -2.8750887719  CLST      67              1.0000000000
       333        67  DCM       H2             -3.5121730438       -3.0406969453       -3.4988387300  CLST      67              1.0000000000
       334        67  DCM       CL1            -2.8623670223       -5.0400845067       -2.3598981895  CLST      67              1.0000000000
       335        67  DCM       CL2            -3.4014082002       -2.4105338757       -1.1957489094  CLST      67              1.0000000000
       336        68  DCM       C              -6.2942556125        2.7641090352       -5.8083998149  CLST      68              1.0000000000
       337        68  DCM       H1             -6.8610240340        3.4945364592       -6.4240951670  CLST      68              1.0000000000
       338        68  DCM       H2             -5.3679101836        3.2210820808       -5.4008231063  CLST      68              1.0000000000
       339        68  DCM       CL1            -7.3233361557        2.2232508027       -4.4554597604  CLST      68              1.0000000000
       340        68  DCM       CL2            -5.8611566746        1.3565926571       -6.8177592779  CLST      68              1.0000000000
       341        69  DCM       C               6.5950055445        0.7736393244       10.1744191140  CLST      69              1.0000000000
       342        69  DCM       H1              6.5612162527        1.7547057844       10.6947949541  CLST      69              1.0000000000
       343        69  DCM       H2              7.3576638733        0.7791587361        9.3680741028  CLST      69              1.0000000000
       344        69  DCM       CL1             4.9942321471        0.4370200000        9.4555356976  CLST      69              1.0000000000
       345        69  DCM       CL2             7.0048248152       -0.5018412431       11.3577438465  CLST      69              1.0000000000
       346        70  DCM       C              -1.7120542528       -7.4105689738       -5.1340702106  CLST      70              1.0000000000
       347        70  DCM       H1             -1.2623028238       -8.0260793153       -5.9419744153  CLST      70              1.0000000000
       348        70  DCM       H2             -1.0968060598       -6.5105740934       -4.9257839529  CLST      70              1.0000000000
       349        70  DCM       CL1            -3.3490092259       -6.8961040020       -5.6324519113  CLST      70              1.0000000000
       350        70  DCM       CL2            -1.8181675332       -8.3976759550       -3.6494684873  CLST      70              1.0000000000
       351        71  DCM       C               1.4324819561       -4.1928091299        6.6619503384  CLST      71              1.0000000000
       352        71  DCM       H1              1.7203486510       -3.3802332608        7.3602492942  CLST      71              1.0000000000
       353        71  DCM       H2              2.2578984849       -4.4296257342        5.9605754586  CLST      71              1.0000000000
       354        71  DCM       CL1             0.0066673657       -3.6724139223        5.7194153541  CLST      71              1.0000000000
       355        71  DCM       CL2             1.0382463486       -5.6564449072        7.6074943219  CLST      71              1.0000000000
       356        72  DCM       C              -5.3899016188       -9.6443685151        2.2528739603  CLST      72              1.0000000000
       357        72  DCM       H1             -5.0048339854       -9.2311837104        1.2983226020  CLST      72              1.0000000000
       358        72  DCM       H2             -6.3106638127      -10.2414758505        2.0831820630  CLST      72              1.0000000000
       359        72  DCM       CL1            -4.1369769636      -10.6885938495        2.9834116320  CLST      72              1.0000000000
       360        72  DCM       CL2            -5.7667345903       -8.2927987332        3.3570501952  CLST      72              1.0000000000
       361        73  DCM       C             -12.0051031212        1.0901363359        6.1142620661  CLST      73              1.0000000000
       362        73  DCM       H1            -12.2023430968        1.3324363789        5.0497325617  CLST      73              1.0000000000
       363        73  DCM       H2            -12.3471241652        1.9106670946        6.7797811053  CLST      73              1.0000000000
       364        73  DCM       CL1           -12.8829817816       -0.4090916272        6.5341526249  CLST      73              1.0000000000
       365        73  DCM       CL2           -10.2475517216        0.8501161706        6.3359856663  CLST      73              1.0000000000
       366        74  DCM       C               2.6358815744       -2.1884001436       10.4630050812  CLST      74              1.0000000000
       367        74  DCM       H1              2.8715098783       -2.0676681745       11.5413939140  CLST      74              1.0000000000
       368        74  DCM       H2              2.5921765105       -1.2035886942        9.9520485261  CLST      74              1.0000000000
       369        74  DCM       CL1             3.9057456603       -3.1888234754        9.6994781575  CLST      74              1.0000000000
       370        74  DCM       CL2             1.0489909194       -2.9938403679       10.2974940745  CLST      74              1.0000000000
       371        75  DCM       C              -0.9450568126       -2.9512279315        2.0256155932  CLST      75              1.0000000000
       372        75  DCM       H1             -1.3582833170       -3.1535638192        3.0359456216  CLST      75              1.0000000000
       373        75  DCM       H2             -1.4396001741       -2.0731485652        1.5601765653  CLST      75              1.0000000000
       374        75  DCM       CL1             0.8054135832       -2.6261556675        2.1658784497  CLST      75              1.0000000000
       375        75  DCM       CL2            -1.2049355477       -4.3806594787        0.9875597975  CLST      75              1.0000000000
       376        76  DCM       C             -12.4920276867        4.3441121529        0.6851897803  CLST      76              1.0000000000
       377        76  DCM       H1            -12.3027749070        3.5267685184        1.4118168400  CLST      76              1.0000000000
       378        76  DCM       H2            -11.8726064306        4.2192427073       -0.2281602622  CLST      76              1.0000000000
       379        76  DCM       CL1           -12.1022494726        5.9083665101        1.4564373630  CLST      76              1.0000000000
       380        76  DCM       CL2           -14.2164954476        4.3127084030        0.2250061667  CLST      76              1.0000000000
       381        77  DCM       C               7.6713841447        2.7941329888        6.1273132001  CLST      77              1.0000000000
       382        77  DCM       H1              6.9419837528        3.4592458203        5.6170267844  CLST      77              1.0000000000
       383        77  DCM       H2              8.5624150312        2.6156156606        5.4904788535  CLST      77              1.0000000000
       384        77  DCM       CL1             8.1868823377        3.5544178251        7.6600604297  CLST      77              1.0000000000
       385        77  DCM       CL2             6.8854644455        1.2296161442        6.4724400791  CLST      77              1.0000000000
       386        78  DCM       C               5.3747335592       -8.1509517462        4.8521380132  CLST      78              1.0000000000
       387        78  DCM       H1              4.5161868271       -7.5306944825        5.1829405404  CLST      78              1.0000000000
       388        78  DCM       H2              6.2178242975       -8.0792727906        5.5713441554  CLST      78              1.0000000000
       389        78  DCM       CL1             4.8454704662       -9.8536549900        4.7335151471  CLST      78              1.0000000000
       390        78  DCM       CL2             5.9228857622       -7.5745308691        3.2527224179  CLST      78              1.0000000000
       391        79  DCM       C               4.5982805001       -0.9662354200       -2.6360406326  CLST      79              1.0000000000
       392        79  DCM       H1              4.6802982846       -1.6719158003       -1.7828240371  CLST      79              1.0000000000
       393        79  DCM       H2              3.5514344259       -0.8931255356       -2.9986902515  CLST      79              1.0000000000
       394        79  DCM       CL1             5.6368714544       -1.5388389990       -3.9705236522  CLST      79              1.0000000000
       395        79  DCM       CL2             5.1379039597        0.6502633405       -2.1085050556  CLST      79              1.0000000000
       396        80  DCM       C               4.0376091606       -0.2410401028        1.3527840672  CLST      80              1.0000000000
       397        80  DCM       H1              3.9278090869       -0.0103712056        2.4311400221  CLST      80              1.0000000000
       398        80  DCM       H2              4.9345775235        0.2596597680        0.9304642149  CLST      80              1.0000000000
       399        80  DCM       CL1             4.1955013772       -2.0088556743        1.1560106721  CLST      80              1.0000000000
       400        80  DCM       CL2             2.5891836000        0.3319286815        0.4817636420  CLST      80              1.0000000000
       401        81  DCM       C             -10.1794687828       -0.0923762367        2.6696825154  CLST      81              1.0000000000
       402        81  DCM       H1             -9.4324183860       -0.3552841809        3.4476155975  CLST      81              1.0000000000
       403        81  DCM       H2             -9.8258999501       -0.3888670032        1.6590354308  CLST      81              1.0000000000
       404        81  DCM       CL1           -11.7094951436       -0.9479390824        3.0195081437  CLST      81              1.0000000000
       405        81  DCM       CL2           -10.4505752640        1.6747671212        2.6991943898  CLST      81              1.0000000000
       406        82  DCM       C              -1.2553042194        2.3652402232       16.6518790567  CLST      82              1.0000000000
       407        82  DCM       H1             -2.0445391232        3.1209689511       16.8502339811  CLST      82              1.0000000000
       408        82  DCM       H2             -1.6991962072        1.3796393078       16.3975315780  CLST      82              1.0000000000
       409        82  DCM       CL1            -0.2495757518        2.9206578414       15.2815927088  CLST      82              1.0000000000
       410        82  DCM       CL2            -0.2425569587        2.1858273272       18.1146015218  CLST      82              1.0000000000
       411        83  DCM       C              -3.9527838095      -11.4285754581       -3.9406698295  CLST      83              1.0000000000
       412        83  DCM       H1             -3.2056015407      -12.2381163326       -4.0813804119  CLST      83              1.0000000000
       413        83  DCM       H2             -3.6253582251      -10.7198471017       -3.1512830878  CLST      83              1.0000000000
       414        83  DCM       CL1            -4.1435368553      -10.5403732955       -5.4795407044  CLST      83              1.0000000000
       415        83  DCM       CL2            -5.5168608405      -12.1504040563       -3.4650787827  CLST      83              1.0000000000
       416        84  DCM       C             -12.5425911761        6.9133659214       -2.1430247951  CLST      84              1.0000000000
       417        84  DCM       H1            -13.0767543025        6.9396484407       -1.1700107762  CLST      84              1.0000000000
       418        84  DCM       H2            -12.7067172187        7.8519773633       -2.7134399612  CLST      84              1.0000000000
       419        84  DCM       CL1           -13.1553746097        5.5354690935       -3.1012574391  CLST      84              1.0000000000
       420        84  DCM       CL2           -10.7915869599        6.7130221090       -1.8420618126  CLST      84              1.0000000000
       421        85  DCM       C              -0.7593206872       11.1201951241        3.8133885040  CLST      85              1.0000000000
       422        85  DCM       H1             -1.3498709410       11.6415300612        4.5964613159  CLST      85              1.0000000000
       423        85  DCM       H2             -0.2546746706       11.8480542714        3.1434634260  CLST      85              1.0000000000
       424        85  DCM       CL1             0.4778980693       10.1016371796        4.6037861896  CLST      85              1.0000000000
       425        85  DCM       CL2            -1.8550990879       10.0985539831        2.8385504632  CLST      85              1.0000000000
       426        86  DCM       C               3.9085409104       -5.2393470092       -4.0704090959  CLST      86              1.0000000000
       427        86  DCM       H1              2.8366282372       -5.1461337274       -4.3453194855  CLST      86              1.0000000000
       428        86  DCM       H2              4.1595964513       -4.5876801532       -3.2097467068  CLST      86              1.0000000000
       429        86  DCM       CL1             4.2504159061       -6.9394673998       -3.6379322647  CLST      86              1.0000000000
       430        86  DCM       CL2             4.9087258922       -4.7621387468       -5.4729207452  CLST      86              1.0000000000
       431        87  DCM       C               2.4194599437        8.3962540853        1.8837501000  CLST      87              1.0000000000
       432        87  DCM       H1              2.1648429863        8.4648382186        2.9616197259  CLST      87              1.0000000000
       433        87  DCM       H2              2.2116274391        7.3788362346        1.4954436281  CLST      87              1.0000000000
       434        87  DCM       CL1             1.4339124970        9.5681692711        0.9624214110  CLST      87              1.0000000000
       435        87  DCM       CL2             4.1578056305        8.7581367617        1.6776349285  CLST      87              1.0000000000
       436        88  DCM       C             -10.0071870635       -2.9286657021        7.0287899469  CLST      88              1.0000000000
       437        88  DCM       H1             -9.0760802132       -3.1724601676        7.5878709246  CLST      88              1.0000000000
       438        88  DCM       H2            -10.4367577505       -1.9667917061        7.3695382493  CLST      88              1.0000000000
       439        88  DCM       CL1            -9.6282999761       -2.8200858944        5.2842872467  CLST      88              1.0000000000
       440        88  DCM       CL2           -11.2064810767       -4.2231050773        7.3090444709  CLST      88              1.0000000000
       441        89  DCM       C               7.0945368042        7.7270308670       -0.6474672182  CLST      89              1.0000000000
       442        89  DCM       H1              6.2913477233        8.4789920382       -0.5016191870  CLST      89              1.0000000000
       443        89  DCM       H2              8.0619027505        8.0932805938       -0.2435789526  CLST      89              1.0000000000
       444        89  DCM       CL1             6.6397235783        6.2212592687        0.1996001509  CLST      89              1.0000000000
       445        89  DCM       CL2             7.2791425029        7.4052566122       -2.3950112827  CLST      89              1.0000000000
       446        90  DCM       C              -4.8966827158       -4.9718116659        1.2284889264  CLST      90              1.0000000000
       447        90  DCM       H1             -4.4175380001       -4.6893595702        2.1888688110  CLST      90              1.0000000000
       448        90  DCM       H2             -4.7523283364       -4.1843417385        0.4620463128  CLST      90              1.0000000000
       449        90  DCM       CL1            -4.1677484034       -6.4915668049        0.6364753815  CLST      90              1.0000000000
       450        90  DCM       CL2            -6.6486775479       -5.1971636752        1.4924599487  CLST      90              1.0000000000
       451        91  DCM       C               8.5009745540       -1.4527772781        4.4363534311  CLST      91              1.0000000000
       452        91  DCM       H1              8.4786506276       -1.5317699928        5.5430031834  CLST      91              1.0000000000
       453        91  DCM       H2              8.8749868712       -2.3930285077        3.9788451877  CLST      91              1.0000000000
       454        91  DCM       CL1             6.8466183488       -1.1332382480        3.8396278429  CLST      91              1.0000000000
       455        91  DCM       CL2             9.5823973029       -0.1058520307        3.9763606673  CLST      91              1.0000000000
       456        92  DCM       C               1.0441937623      -10.6960715787       -4.2282569084  CLST      92              1.0000000000
       457        92  DCM       H1              0.7228405150      -10.6068654238       -3.1700444720  CLST      92              1.0000000000
       458        92  DCM       H2              1.8960722261      -11.4007346241       -4.3287900275  CLST      92              1.0000000000
       459        92  DCM       CL1            -0.3307338902      -11.2982423219       -5.2006529285  CLST      92              1.0000000000
       460        92  DCM       CL2             1.5481429728       -9.0855456401       -4.8191972540  CLST      92              1.0000000000
