* PRE_MLPOT:MONOMER_REPACK
*  DATE:     6/28/26      2: 2: 6      CREATED BY USER: boittier
*
       460  EXT
         1         1  DCM       C              -2.2233330095       -0.0968395699       -1.8969344658  CLST      1               1.0000000000
         2         1  DCM       H1             -2.4785268785       -0.3479904084       -0.8469995304  CLST      1               1.0000000000
         3         1  DCM       H2             -2.7634115631       -0.7555551757       -2.6094081118  CLST      1               1.0000000000
         4         1  DCM       CL1            -2.6784534776        1.6004322020       -2.2195684111  CLST      1               1.0000000000
         5         1  DCM       CL2            -0.4662048586       -0.3165576069       -2.1310730431  CLST      1               1.0000000000
         6         2  DCM       C              -1.9039421735       -3.6349855087        1.1509585508  CLST      2               1.0000000000
         7         2  DCM       H1             -2.8165421194       -3.3080954479        0.6081425982  CLST      2               1.0000000000
         8         2  DCM       H2             -1.9494267550       -3.3352576238        2.2191598644  CLST      2               1.0000000000
         9         2  DCM       CL1            -1.7761324530       -5.4146174851        1.0514451827  CLST      2               1.0000000000
        10         2  DCM       CL2            -0.4739630671       -2.8769066446        0.3915300514  CLST      2               1.0000000000
        11         3  DCM       C               2.6885566612        2.4089304559        0.5635667771  CLST      3               1.0000000000
        12         3  DCM       H1              3.2578299533        1.9210055515        1.3825357480  CLST      3               1.0000000000
        13         3  DCM       H2              1.5984784878        2.2513219005        0.6909307027  CLST      3               1.0000000000
        14         3  DCM       CL1             3.0246146195        4.1649031367        0.5756387574  CLST      3               1.0000000000
        15         3  DCM       CL2             3.1896632868        1.7031010985       -0.9990992556  CLST      3               1.0000000000
        16         4  DCM       C               1.8838734302        0.2181024982        2.8276820930  CLST      4               1.0000000000
        17         4  DCM       H1              2.0775370557        0.4400508043        1.7580546564  CLST      4               1.0000000000
        18         4  DCM       H2              1.6785036719       -0.8625518435        2.9793682853  CLST      4               1.0000000000
        19         4  DCM       CL1             3.3182127945        0.6814551048        3.7877129551  CLST      4               1.0000000000
        20         4  DCM       CL2             0.4649084297        1.1602192704        3.3652945658  CLST      4               1.0000000000
        21         5  DCM       C              -0.5898607942        0.4561140685       -2.5547782069  CLST      5               1.0000000000
        22         5  DCM       H1             -0.2880558389       -0.3802141096       -1.8916622769  CLST      5               1.0000000000
        23         5  DCM       H2              0.2243698328        1.2057213506       -2.6435258983  CLST      5               1.0000000000
        24         5  DCM       CL1            -2.0416960473        1.2467954929       -1.8770604328  CLST      5               1.0000000000
        25         5  DCM       CL2            -0.9601819014       -0.1919975416       -4.1760867879  CLST      5               1.0000000000
        26         6  DCM       C               0.9358049088       -3.0145252907       -0.3209470381  CLST      6               1.0000000000
        27         6  DCM       H1              0.3774021018       -2.5475997282       -1.1591725728  CLST      6               1.0000000000
        28         6  DCM       H2              2.0325504097       -2.9111742695       -0.4638821774  CLST      6               1.0000000000
        29         6  DCM       CL1             0.4699326661       -2.2107715736        1.2060869106  CLST      6               1.0000000000
        30         6  DCM       CL2             0.5214902854       -4.7512079420       -0.2429689245  CLST      6               1.0000000000
        31         7  DCM       C              -0.7719328107        1.0065941673       -3.1143176892  CLST      7               1.0000000000
        32         7  DCM       H1              0.0911045489        0.7974467192       -2.4475652778  CLST      7               1.0000000000
        33         7  DCM       H2             -1.4258076467        0.1145984337       -3.2094102215  CLST      7               1.0000000000
        34         7  DCM       CL1            -1.7274910835        2.3511840221       -2.4277105382  CLST      7               1.0000000000
        35         7  DCM       CL2            -0.1637579878        1.4499203720       -4.7358941389  CLST      7               1.0000000000
        36         8  DCM       C               0.2925094766       -1.5597782388        0.6141898710  CLST      8               1.0000000000
        37         8  DCM       H1              0.8465404347       -1.4087274071       -0.3362148099  CLST      8               1.0000000000
        38         8  DCM       H2             -0.3583836585       -2.4576997270        0.5577101258  CLST      8               1.0000000000
        39         8  DCM       CL1             1.4656524302       -1.7687801667        1.9465433141  CLST      8               1.0000000000
        40         8  DCM       CL2            -0.7249097421       -0.1259033554        0.9284066247  CLST      8               1.0000000000
        41         9  DCM       C              -1.6265062964        0.9801261081       -0.1568334829  CLST      9               1.0000000000
        42         9  DCM       H1             -1.1609910909        0.4487203650        0.7019633416  CLST      9               1.0000000000
        43         9  DCM       H2             -2.7324570715        0.9709732817       -0.0779335790  CLST      9               1.0000000000
        44         9  DCM       CL1            -1.0573730745        2.6732747612       -0.1650903463  CLST      9               1.0000000000
        45         9  DCM       CL2            -1.1392489590        0.1699730300       -1.6731083317  CLST      9               1.0000000000
        46        10  DCM       C               0.9753927030        2.1472506053        1.4304255660  CLST      10              1.0000000000
        47        10  DCM       H1              1.7850629978        2.8794087188        1.6314968445  CLST      10              1.0000000000
        48        10  DCM       H2              1.2113646253        1.1599427722        1.8814072675  CLST      10              1.0000000000
        49        10  DCM       CL1            -0.5504587796        2.7572767377        2.1359034385  CLST      10              1.0000000000
        50        10  DCM       CL2             0.7929844345        1.9528509381       -0.3379969838  CLST      10              1.0000000000
        51        11  DCM       C               0.3346577073       -2.6029212211        2.4947490978  CLST      11              1.0000000000
        52        11  DCM       H1              1.3381337719       -2.1795559497        2.7098481374  CLST      11              1.0000000000
        53        11  DCM       H2             -0.0533434026       -2.2276197889        1.5246206867  CLST      11              1.0000000000
        54        11  DCM       CL1             0.4589157884       -4.3838219839        2.4255232205  CLST      11              1.0000000000
        55        11  DCM       CL2            -0.7938568891       -2.1273401729        3.7957595216  CLST      11              1.0000000000
        56        12  DCM       C               1.9914574878       -3.1565008414        0.1409730206  CLST      12              1.0000000000
        57        12  DCM       H1              2.1143208257       -3.5721130584       -0.8814098819  CLST      12              1.0000000000
        58        12  DCM       H2              1.6440593774       -3.9370522894        0.8499320845  CLST      12              1.0000000000
        59        12  DCM       CL1             3.5662713381       -2.5220012180        0.6977116018  CLST      12              1.0000000000
        60        12  DCM       CL2             0.7859187020       -1.8391870415        0.0847935190  CLST      12              1.0000000000
        61        13  DCM       C              -1.9856534182        0.7240323281       -1.8906299022  CLST      13              1.0000000000
        62        13  DCM       H1             -1.4769626923        0.3967689500       -2.8218622729  CLST      13              1.0000000000
        63        13  DCM       H2             -1.7121291885        1.7687314942       -1.6317393357  CLST      13              1.0000000000
        64        13  DCM       CL1            -3.7542977079        0.6264798367       -2.1325201520  CLST      13              1.0000000000
        65        13  DCM       CL2            -1.4968322164       -0.3535928839       -0.5506196506  CLST      13              1.0000000000
        66        14  DCM       C               1.7694943816       -0.6193956239       -2.3921244451  CLST      14              1.0000000000
        67        14  DCM       H1              1.9845969783       -1.4112191557       -1.6442212979  CLST      14              1.0000000000
        68        14  DCM       H2              0.6911916562       -0.3622908151       -2.3986697319  CLST      14              1.0000000000
        69        14  DCM       CL1             2.7201626091        0.8374601853       -1.9813003113  CLST      14              1.0000000000
        70        14  DCM       CL2             2.2233488929       -1.2097603479       -4.0163782118  CLST      14              1.0000000000
        71        15  DCM       C              -2.9614538171        2.0128182798       -1.5509677751  CLST      15              1.0000000000
        72        15  DCM       H1             -3.4278825133        1.4699903632       -0.7011828008  CLST      15              1.0000000000
        73        15  DCM       H2             -3.2540268994        1.5611131611       -2.5220671706  CLST      15              1.0000000000
        74        15  DCM       CL1            -3.4935491758        3.7189569488       -1.5194026048  CLST      15              1.0000000000
        75        15  DCM       CL2            -1.1836387663        1.9348817561       -1.3844102620  CLST      15              1.0000000000
        76        16  DCM       C              -1.3622212008        0.3776790446        2.3450654148  CLST      16              1.0000000000
        77        16  DCM       H1             -2.1306531398        0.7566763505        1.6393358385  CLST      16              1.0000000000
        78        16  DCM       H2             -1.7501886225       -0.4831475559        2.9263949345  CLST      16              1.0000000000
        79        16  DCM       CL1            -0.8948074765        1.6807328492        3.4712029033  CLST      16              1.0000000000
        80        16  DCM       CL2             0.0724426199       -0.1453771726        1.4236610889  CLST      16              1.0000000000
        81        17  DCM       C              -0.0975461944        1.0898668130        0.5863513936  CLST      17              1.0000000000
        82        17  DCM       H1              0.0942521060        1.0767017396       -0.5073481885  CLST      17              1.0000000000
        83        17  DCM       H2             -1.1832293417        1.0154944443        0.8000043189  CLST      17              1.0000000000
        84        17  DCM       CL1             0.7371861129       -0.2939570384        1.3437951551  CLST      17              1.0000000000
        85        17  DCM       CL2             0.5210668179        2.6169924858        1.2720300432  CLST      17              1.0000000000
        86        18  DCM       C               1.5569214255        2.0067744740        2.4229896732  CLST      18              1.0000000000
        87        18  DCM       H1              1.9568606424        1.9839166787        3.4570057659  CLST      18              1.0000000000
        88        18  DCM       H2              2.0093359490        1.1982477700        1.8134291556  CLST      18              1.0000000000
        89        18  DCM       CL1            -0.2152876995        1.7819824357        2.4702411601  CLST      18              1.0000000000
        90        18  DCM       CL2             1.9424164476        3.5834596429        1.6782195926  CLST      18              1.0000000000
        91        19  DCM       C               1.5677362744        1.9510514937       -0.7046990273  CLST      19              1.0000000000
        92        19  DCM       H1              2.1751215101        1.8784576108       -1.6316521316  CLST      19              1.0000000000
        93        19  DCM       H2              0.4862466296        2.0319861679       -0.9436342245  CLST      19              1.0000000000
        94        19  DCM       CL1             1.8334499851        0.4874487935        0.2862558902  CLST      19              1.0000000000
        95        19  DCM       CL2             2.0748669503        3.4014110004        0.2101910259  CLST      19              1.0000000000
        96        20  DCM       C              -0.5979200108        0.3462609069        1.6402920329  CLST      20              1.0000000000
        97        20  DCM       H1             -1.1430387922        0.0814438193        0.7095816726  CLST      20              1.0000000000
        98        20  DCM       H2             -1.1999778634        0.0995033025        2.5401975825  CLST      20              1.0000000000
        99        20  DCM       CL1             0.9380935278       -0.5671535922        1.6986070454  CLST      20              1.0000000000
       100        20  DCM       CL2            -0.2607330106        2.1009430890        1.6343831043  CLST      20              1.0000000000
       101        21  DCM       C              -0.7798510397       -0.4819117571        1.2560694912  CLST      21              1.0000000000
       102        21  DCM       H1             -0.5893143989        0.5225942640        0.8240034705  CLST      21              1.0000000000
       103        21  DCM       H2             -0.2471050385       -0.6070660935        2.2218095623  CLST      21              1.0000000000
       104        21  DCM       CL1            -2.5362270190       -0.6676753101        1.5308798854  CLST      21              1.0000000000
       105        21  DCM       CL2            -0.2106822949       -1.7277629890        0.1074479049  CLST      21              1.0000000000
       106        22  DCM       C               0.3575025453        1.6047288808        2.5606942055  CLST      22              1.0000000000
       107        22  DCM       H1              0.0080316127        0.6208615955        2.1837529574  CLST      22              1.0000000000
       108        22  DCM       H2              0.0380079426        2.4261301741        1.8856380056  CLST      22              1.0000000000
       109        22  DCM       CL1            -0.3336098122        1.8812673890        4.1863966414  CLST      22              1.0000000000
       110        22  DCM       CL2             2.1426572200        1.5867525448        2.6542478954  CLST      22              1.0000000000
       111        23  DCM       C              -1.5259852527       -1.9907944798        1.1550011725  CLST      23              1.0000000000
       112        23  DCM       H1             -2.5604741535       -1.9203088828        0.7559312571  CLST      23              1.0000000000
       113        23  DCM       H2             -1.4630568853       -1.5701483599        2.1804475756  CLST      23              1.0000000000
       114        23  DCM       CL1            -1.0402381331       -3.7093229583        1.2018346399  CLST      23              1.0000000000
       115        23  DCM       CL2            -0.4223651545       -1.0828645869        0.0809325558  CLST      23              1.0000000000
       116        24  DCM       C              -2.6613796991        0.6295059794       -0.2542481134  CLST      24              1.0000000000
       117        24  DCM       H1             -2.7527748279        1.1639082228       -1.2232104761  CLST      24              1.0000000000
       118        24  DCM       H2             -2.7517202229       -0.4683705498       -0.3958632614  CLST      24              1.0000000000
       119        24  DCM       CL1            -1.0665355893        0.9966239035        0.4652357168  CLST      24              1.0000000000
       120        24  DCM       CL2            -3.9606481862        1.1840046908        0.8404182883  CLST      24              1.0000000000
       121        25  DCM       C              -0.4688559404       -1.0383054327       -1.0475418359  CLST      25              1.0000000000
       122        25  DCM       H1              0.1045395828       -1.7748603008       -1.6490912260  CLST      25              1.0000000000
       123        25  DCM       H2             -1.5403241869       -1.0329954696       -1.3385798619  CLST      25              1.0000000000
       124        25  DCM       CL1            -0.3394006897       -1.4734359380        0.6815987119  CLST      25              1.0000000000
       125        25  DCM       CL2             0.2156530207        0.5912051139       -1.3156720177  CLST      25              1.0000000000
       126        26  DCM       C               1.8880799494       -1.0925091884       -1.6763037486  CLST      26              1.0000000000
       127        26  DCM       H1              2.1569575192       -1.8224995619       -2.4681990673  CLST      26              1.0000000000
       128        26  DCM       H2              2.5076685494       -0.1755844671       -1.7511158187  CLST      26              1.0000000000
       129        26  DCM       CL1             0.1685453753       -0.6394404118       -1.8526742225  CLST      26              1.0000000000
       130        26  DCM       CL2             2.1690564287       -1.8392641523       -0.0784020910  CLST      26              1.0000000000
       131        27  DCM       C              -0.1199322555       -1.7132162888        0.5883201453  CLST      27              1.0000000000
       132        27  DCM       H1              0.9042534879       -2.0580290711        0.8418100187  CLST      27              1.0000000000
       133        27  DCM       H2             -0.1953403654       -0.6063658670        0.6410868187  CLST      27              1.0000000000
       134        27  DCM       CL1            -0.5161878043       -2.2410042307       -1.0718906647  CLST      27              1.0000000000
       135        27  DCM       CL2            -1.2809008359       -2.4261709221        1.7446989673  CLST      27              1.0000000000
       136        28  DCM       C               0.8319683002       -2.1450247699        2.0956494692  CLST      28              1.0000000000
       137        28  DCM       H1              0.5893456738       -1.7749809867        3.1142392019  CLST      28              1.0000000000
       138        28  DCM       H2              0.5411330359       -1.4043755028        1.3208464362  CLST      28              1.0000000000
       139        28  DCM       CL1             2.5930770460       -2.4354300909        1.9886305982  CLST      28              1.0000000000
       140        28  DCM       CL2            -0.0570461822       -3.6696396121        1.8051113629  CLST      28              1.0000000000
       141        29  DCM       C               2.3798497254        2.1083822237       -1.1057642006  CLST      29              1.0000000000
       142        29  DCM       H1              2.5852417933        2.5321134363       -2.1113975904  CLST      29              1.0000000000
       143        29  DCM       H2              1.4205879861        2.4860515280       -0.6957679369  CLST      29              1.0000000000
       144        29  DCM       CL1             3.6924951791        2.5680698494        0.0038101916  CLST      29              1.0000000000
       145        29  DCM       CL2             2.3109113995        0.3311347980       -1.2188342750  CLST      29              1.0000000000
       146        30  DCM       C               0.2519906747        1.7797194404        2.8980781124  CLST      30              1.0000000000
       147        30  DCM       H1              1.2374273831        2.1558382779        3.2471148555  CLST      30              1.0000000000
       148        30  DCM       H2             -0.1944600678        1.0820059957        3.6368882209  CLST      30              1.0000000000
       149        30  DCM       CL1            -0.8506152802        3.1663025907        2.6699425050  CLST      30              1.0000000000
       150        30  DCM       CL2             0.4750319406        0.9235353077        1.3450740863  CLST      30              1.0000000000
       151        31  DCM       C               2.2317533378        1.9316646371        2.1107122133  CLST      31              1.0000000000
       152        31  DCM       H1              1.4967744489        1.2191348337        2.5399712702  CLST      31              1.0000000000
       153        31  DCM       H2              3.2722072138        1.5781873600        2.2715779799  CLST      31              1.0000000000
       154        31  DCM       CL1             1.9350913508        2.0831294515        0.3551542283  CLST      31              1.0000000000
       155        31  DCM       CL2             2.0286579858        3.5232449635        2.8989358312  CLST      31              1.0000000000
       156        32  DCM       C              -2.9956334345        1.0751620651       -1.6852728228  CLST      32              1.0000000000
       157        32  DCM       H1             -2.3632826281        0.9368652384       -2.5850095805  CLST      32              1.0000000000
       158        32  DCM       H2             -2.5765991535        1.8623675263       -1.0215306243  CLST      32              1.0000000000
       159        32  DCM       CL1            -4.6383480428        1.5615778218       -2.1972459029  CLST      32              1.0000000000
       160        32  DCM       CL2            -3.0703676765       -0.4670122551       -0.7847785128  CLST      32              1.0000000000
       161        33  DCM       C               2.3343757512        0.5793340415       -1.5039286117  CLST      33              1.0000000000
       162        33  DCM       H1              2.0610948806       -0.3933198665       -1.0454733899  CLST      33              1.0000000000
       163        33  DCM       H2              3.3280624648        0.9213049194       -1.1436708632  CLST      33              1.0000000000
       164        33  DCM       CL1             2.3826162739        0.4013564191       -3.2822511196  CLST      33              1.0000000000
       165        33  DCM       CL2             1.1035573418        1.7907360824       -1.0518010157  CLST      33              1.0000000000
       166        34  DCM       C              -0.8288672077       -0.7860214119        1.8897249831  CLST      34              1.0000000000
       167        34  DCM       H1             -0.3554606373        0.2027330462        2.0700838615  CLST      34              1.0000000000
       168        34  DCM       H2             -0.0620993756       -1.5739113616        1.7328634092  CLST      34              1.0000000000
       169        34  DCM       CL1            -1.8227538814       -1.2225547519        3.3094053099  CLST      34              1.0000000000
       170        34  DCM       CL2            -1.8565819511       -0.6768974295        0.4304464550  CLST      34              1.0000000000
       171        35  DCM       C               2.4587383668       -1.2296649111        1.5889324857  CLST      35              1.0000000000
       172        35  DCM       H1              2.3277631870       -1.7404951277        0.6115360715  CLST      35              1.0000000000
       173        35  DCM       H2              2.2411388514       -1.9183798561        2.4327091845  CLST      35              1.0000000000
       174        35  DCM       CL1             4.1466999396       -0.6588006463        1.7252306788  CLST      35              1.0000000000
       175        35  DCM       CL2             1.3404716392        0.1619261280        1.6722327826  CLST      35              1.0000000000
       176        36  DCM       C              -0.1498582087        2.9011238964        0.4088528720  CLST      36              1.0000000000
       177        36  DCM       H1              0.8852368873        2.5446793241        0.5888499059  CLST      36              1.0000000000
       178        36  DCM       H2             -0.4657691947        2.6945259502       -0.6358893510  CLST      36              1.0000000000
       179        36  DCM       CL1            -1.2578045648        2.0557186204        1.5268830839  CLST      36              1.0000000000
       180        36  DCM       CL2            -0.2230713778        4.6623593966        0.7010813670  CLST      36              1.0000000000
       181        37  DCM       C               0.2332599399        0.1729815215       -1.4327573838  CLST      37              1.0000000000
       182        37  DCM       H1              1.2936416818        0.2382323387       -1.1110999208  CLST      37              1.0000000000
       183        37  DCM       H2             -0.2820774545        1.1489348739       -1.3089149848  CLST      37              1.0000000000
       184        37  DCM       CL1             0.1771743946       -0.3038608202       -3.1546163388  CLST      37              1.0000000000
       185        37  DCM       CL2            -0.5992359120       -1.0544962116       -0.4350286449  CLST      37              1.0000000000
       186        38  DCM       C               0.4178310063       -2.9777683003       -0.8017083847  CLST      38              1.0000000000
       187        38  DCM       H1             -0.5834234394       -3.4476662161       -0.7189986953  CLST      38              1.0000000000
       188        38  DCM       H2              1.0323473584       -3.4953722604       -1.5678678537  CLST      38              1.0000000000
       189        38  DCM       CL1             0.2171852805       -1.2648765819       -1.2631454349  CLST      38              1.0000000000
       190        38  DCM       CL2             1.2470689426       -3.0771888731        0.7765010036  CLST      38              1.0000000000
       191        39  DCM       C              -0.9513778886       -1.9624573590       -1.1539504392  CLST      39              1.0000000000
       192        39  DCM       H1             -1.9083544639       -1.7271624338       -1.6672215500  CLST      39              1.0000000000
       193        39  DCM       H2             -1.0662925046       -2.8327072733       -0.4766559659  CLST      39              1.0000000000
       194        39  DCM       CL1             0.2892573783       -2.3433551968       -2.3837809882  CLST      39              1.0000000000
       195        39  DCM       CL2            -0.4465771220       -0.5411284714       -0.1956951352  CLST      39              1.0000000000
       196        40  DCM       C               1.3854381173        1.3545991222       -2.6162732408  CLST      40              1.0000000000
       197        40  DCM       H1              0.9757253434        1.6928140275       -1.6417672576  CLST      40              1.0000000000
       198        40  DCM       H2              2.4851641334        1.2145777909       -2.5524163592  CLST      40              1.0000000000
       199        40  DCM       CL1             0.6244566956       -0.1977480440       -3.0696537748  CLST      40              1.0000000000
       200        40  DCM       CL2             1.0193512718        2.5824236291       -3.8609784176  CLST      40              1.0000000000
       201        41  DCM       C               2.0307691265        1.1811977351       -1.9214036949  CLST      41              1.0000000000
       202        41  DCM       H1              1.9881288021        1.9305469191       -1.1039505915  CLST      41              1.0000000000
       203        41  DCM       H2              1.4543983570        0.2678197320       -1.6592132068  CLST      41              1.0000000000
       204        41  DCM       CL1             1.3412164988        1.9015173456       -3.4042871263  CLST      41              1.0000000000
       205        41  DCM       CL2             3.7367551714        0.7303645696       -2.1991481046  CLST      41              1.0000000000
       206        42  DCM       C              -2.5758158810       -2.9720725964       -2.4164803158  CLST      42              1.0000000000
       207        42  DCM       H1             -3.2010886607       -2.9943511083       -3.3341061964  CLST      42              1.0000000000
       208        42  DCM       H2             -3.0644741353       -3.5224329996       -1.5847220195  CLST      42              1.0000000000
       209        42  DCM       CL1            -0.9926207254       -3.7274452184       -2.7656989655  CLST      42              1.0000000000
       210        42  DCM       CL2            -2.3376344247       -1.2728235914       -1.9208692477  CLST      42              1.0000000000
       211        43  DCM       C              -2.4953144479       -2.5128948966        2.3103261544  CLST      43              1.0000000000
       212        43  DCM       H1             -1.6476365613       -2.1457424543        2.9258430027  CLST      43              1.0000000000
       213        43  DCM       H2             -2.4333380695       -2.1222357160        1.2727082469  CLST      43              1.0000000000
       214        43  DCM       CL1            -4.0279813685       -1.9632627353        3.0468678761  CLST      43              1.0000000000
       215        43  DCM       CL2            -2.4465768331       -4.2990644276        2.2656808005  CLST      43              1.0000000000
       216        44  DCM       C              -1.2682449308       -1.9016877256       -1.6598557806  CLST      44              1.0000000000
       217        44  DCM       H1             -0.3756557291       -1.6212650528       -1.0634935037  CLST      44              1.0000000000
       218        44  DCM       H2             -2.0806607508       -2.2783698499       -1.0054279915  CLST      44              1.0000000000
       219        44  DCM       CL1            -0.8236836310       -3.1856293561       -2.8203934851  CLST      44              1.0000000000
       220        44  DCM       CL2            -1.8571648406       -0.4628759995       -2.5367239512  CLST      44              1.0000000000
       221        45  DCM       C              -0.4861532297       -2.5262153654       -2.7383905530  CLST      45              1.0000000000
       222        45  DCM       H1             -0.4528752570       -2.8364902522       -3.8044602504  CLST      45              1.0000000000
       223        45  DCM       H2             -1.1656488986       -3.1814897767       -2.1543373059  CLST      45              1.0000000000
       224        45  DCM       CL1             1.1610612081       -2.6184854154       -2.0475363884  CLST      45              1.0000000000
       225        45  DCM       CL2            -1.0895817207       -0.8490705499       -2.6433179213  CLST      45              1.0000000000
       226        46  DCM       C               1.6127538520       -1.4978739129        2.2987025214  CLST      46              1.0000000000
       227        46  DCM       H1              1.0107452352       -0.7117614256        2.8019012828  CLST      46              1.0000000000
       228        46  DCM       H2              2.4567897608       -1.8246001525        2.9422211339  CLST      46              1.0000000000
       229        46  DCM       CL1             2.2635786631       -0.8421348580        0.7682165739  CLST      46              1.0000000000
       230        46  DCM       CL2             0.5631276971       -2.9027621479        1.9574786525  CLST      46              1.0000000000
       231        47  DCM       C               2.2142672650        1.7541948676        0.8313981459  CLST      47              1.0000000000
       232        47  DCM       H1              1.1334266938        1.4995120127        0.7846029645  CLST      47              1.0000000000
       233        47  DCM       H2              2.4822996593        2.4938619293        0.0475472463  CLST      47              1.0000000000
       234        47  DCM       CL1             2.5847902721        2.4473784414        2.4360545935  CLST      47              1.0000000000
       235        47  DCM       CL2             3.1720783360        0.2676163722        0.5809764535  CLST      47              1.0000000000
       236        48  DCM       C               0.1410569921       -2.9549265236       -0.4460693951  CLST      48              1.0000000000
       237        48  DCM       H1             -0.5117551975       -3.4620112965       -1.1874727644  CLST      48              1.0000000000
       238        48  DCM       H2              0.7097965028       -3.6947580621        0.1543762589  CLST      48              1.0000000000
       239        48  DCM       CL1             1.2930168643       -1.8992782908       -1.3076435499  CLST      48              1.0000000000
       240        48  DCM       CL2            -0.8748614652       -1.9729230154        0.6447986533  CLST      48              1.0000000000
       241        49  DCM       C              -2.4150044832       -0.8673704681        1.9045004848  CLST      49              1.0000000000
       242        49  DCM       H1             -1.4299614565       -0.8392428236        2.4137795418  CLST      49              1.0000000000
       243        49  DCM       H2             -2.5553133837       -1.8259736090        1.3620131264  CLST      49              1.0000000000
       244        49  DCM       CL1            -3.7083080194       -0.6889304658        3.1255775686  CLST      49              1.0000000000
       245        49  DCM       CL2            -2.4942055936        0.4815662469        0.7362650218  CLST      49              1.0000000000
       246        50  DCM       C              -2.3468281957        2.4387089722        2.5238299422  CLST      50              1.0000000000
       247        50  DCM       H1             -3.4580449474        2.4184468479        2.5507438874  CLST      50              1.0000000000
       248        50  DCM       H2             -1.9339227369        2.9512083500        3.4167477744  CLST      50              1.0000000000
       249        50  DCM       CL1            -1.8083016236        3.3026883314        1.0569019513  CLST      50              1.0000000000
       250        50  DCM       CL2            -1.7362647276        0.7636655096        2.4871131296  CLST      50              1.0000000000
       251        51  DCM       C              -0.7771488276        2.5817051451       -0.9976073134  CLST      51              1.0000000000
       252        51  DCM       H1             -1.6386754102        3.2554617462       -0.7843069433  CLST      51              1.0000000000
       253        51  DCM       H2             -0.8956274173        2.0855466408       -1.9807657246  CLST      51              1.0000000000
       254        51  DCM       CL1            -0.6823131655        1.3389779516        0.2802753904  CLST      51              1.0000000000
       255        51  DCM       CL2             0.7249607059        3.5441040833       -1.0054745576  CLST      51              1.0000000000
       256        52  DCM       C              -0.4849380899        2.2356157408        1.0619161331  CLST      52              1.0000000000
       257        52  DCM       H1             -0.8833415378        1.8788859568        0.0901846032  CLST      52              1.0000000000
       258        52  DCM       H2             -0.4972448917        3.3427181026        1.1113197062  CLST      52              1.0000000000
       259        52  DCM       CL1            -1.4961739747        1.5873277486        2.3841412894  CLST      52              1.0000000000
       260        52  DCM       CL2             1.1969438788        1.6595223779        1.2393303368  CLST      52              1.0000000000
       261        53  DCM       C              -0.6336619254        0.3564236993       -1.4374310444  CLST      53              1.0000000000
       262        53  DCM       H1             -1.0976989997        1.0023698558       -2.2129551898  CLST      53              1.0000000000
       263        53  DCM       H2             -1.3024124080        0.2444223186       -0.5581046228  CLST      53              1.0000000000
       264        53  DCM       CL1            -0.3222631476       -1.2583314113       -2.1364359929  CLST      53              1.0000000000
       265        53  DCM       CL2             0.9063020746        1.0945183722       -0.9085570323  CLST      53              1.0000000000
       266        54  DCM       C               2.1665369955       -2.2619249888       -1.9357206732  CLST      54              1.0000000000
       267        54  DCM       H1              2.1743748712       -1.1781674869       -2.1771685437  CLST      54              1.0000000000
       268        54  DCM       H2              1.1953796490       -2.5657805033       -1.4933429716  CLST      54              1.0000000000
       269        54  DCM       CL1             2.4365467294       -3.1872257874       -3.4400872650  CLST      54              1.0000000000
       270        54  DCM       CL2             3.4749137719       -2.6053092640       -0.7663954506  CLST      54              1.0000000000
       271        55  DCM       C               1.1420411312        2.0083136255       -0.4937607514  CLST      55              1.0000000000
       272        55  DCM       H1              0.4132854160        2.8404576896       -0.5931725446  CLST      55              1.0000000000
       273        55  DCM       H2              1.1883142526        1.4069304379       -1.4251618938  CLST      55              1.0000000000
       274        55  DCM       CL1             2.7626950312        2.6849097617       -0.1627175760  CLST      55              1.0000000000
       275        55  DCM       CL2             0.6388771036        0.9463199217        0.8534665305  CLST      55              1.0000000000
       276        56  DCM       C              -2.3517284909        1.5389707788        2.2232625286  CLST      56              1.0000000000
       277        56  DCM       H1             -1.6059336119        1.3042055687        3.0120642067  CLST      56              1.0000000000
       278        56  DCM       H2             -3.2751455268        0.9381516611        2.3595445412  CLST      56              1.0000000000
       279        56  DCM       CL1            -2.7725540398        3.2719271692        2.3201830788  CLST      56              1.0000000000
       280        56  DCM       CL2            -1.6476435260        1.1723620036        0.6214825025  CLST      56              1.0000000000
       281        57  DCM       C               2.3106730300       -0.4199069244       -1.2626915795  CLST      57              1.0000000000
       282        57  DCM       H1              1.6630748505       -0.9078187473       -2.0197561315  CLST      57              1.0000000000
       283        57  DCM       H2              3.3736704954       -0.7136484149       -1.3965944546  CLST      57              1.0000000000
       284        57  DCM       CL1             2.1668353305        1.3528644500       -1.4370352869  CLST      57              1.0000000000
       285        57  DCM       CL2             1.7706142595       -0.9147931753        0.3673953722  CLST      57              1.0000000000
       286        58  DCM       C              -2.5489024967        1.5040568011       -0.2080215327  CLST      58              1.0000000000
       287        58  DCM       H1             -3.1685532872        1.4245883176       -1.1277535692  CLST      58              1.0000000000
       288        58  DCM       H2             -1.5627477443        1.9609021039       -0.4341188124  CLST      58              1.0000000000
       289        58  DCM       CL1            -3.4017318015        2.5214805861        0.9886503128  CLST      58              1.0000000000
       290        58  DCM       CL2            -2.2956895634       -0.1326486585        0.4622431414  CLST      58              1.0000000000
       291        59  DCM       C              -1.0969393173        0.3523766605        2.8018182563  CLST      59              1.0000000000
       292        59  DCM       H1             -0.9436544168        0.5158062467        3.8896465968  CLST      59              1.0000000000
       293        59  DCM       H2             -1.0451029530        1.3106384495        2.2429564981  CLST      59              1.0000000000
       294        59  DCM       CL1             0.1758709794       -0.7458932302        2.1949645454  CLST      59              1.0000000000
       295        59  DCM       CL2            -2.7047390288       -0.3849592276        2.5435557160  CLST      59              1.0000000000
       296        60  DCM       C               2.9774872090       -1.5292244394       -2.4164948701  CLST      60              1.0000000000
       297        60  DCM       H1              2.6660706519       -0.6230987153       -2.9774637473  CLST      60              1.0000000000
       298        60  DCM       H2              3.2095541395       -1.2830216470       -1.3588035760  CLST      60              1.0000000000
       299        60  DCM       CL1             1.6487758761       -2.7235997076       -2.4562718520  CLST      60              1.0000000000
       300        60  DCM       CL2             4.4339790429       -2.2199127834       -3.1889787796  CLST      60              1.0000000000
       301        61  DCM       C               1.9216167996        3.0417457319       -1.2368172133  CLST      61              1.0000000000
       302        61  DCM       H1              2.4454376266        4.0205741044       -1.2378737481  CLST      61              1.0000000000
       303        61  DCM       H2              2.0455425432        2.5196034930       -0.2657631523  CLST      61              1.0000000000
       304        61  DCM       CL1             2.5936699123        2.0134871087       -2.5285858014  CLST      61              1.0000000000
       305        61  DCM       CL2             0.1842022682        3.3071047540       -1.5303521286  CLST      61              1.0000000000
       306        62  DCM       C              -1.2743412864        2.6636410539        1.6424893544  CLST      62              1.0000000000
       307        62  DCM       H1             -1.0971603474        3.6904553325        2.0237092068  CLST      62              1.0000000000
       308        62  DCM       H2             -1.9952936897        2.6728566836        0.7978671034  CLST      62              1.0000000000
       309        62  DCM       CL1             0.2788500865        1.9803884809        1.0808194799  CLST      62              1.0000000000
       310        62  DCM       CL2            -1.9382424155        1.6616602385        2.9657104089  CLST      62              1.0000000000
       311        63  DCM       C              -3.7620248387        0.1918134363       -1.4855817464  CLST      63              1.0000000000
       312        63  DCM       H1             -2.8249709988        0.5723961108       -1.0264599721  CLST      63              1.0000000000
       313        63  DCM       H2             -4.3135000692       -0.4636595136       -0.7791342860  CLST      63              1.0000000000
       314        63  DCM       CL1            -4.7997129147        1.5775615613       -1.9239189566  CLST      63              1.0000000000
       315        63  DCM       CL2            -3.3582061556       -0.7411397436       -2.9554233949  CLST      63              1.0000000000
       316        64  DCM       C               2.3861528613       -0.3612760955        1.1774939439  CLST      64              1.0000000000
       317        64  DCM       H1              1.8818066063       -0.0785513494        0.2292041084  CLST      64              1.0000000000
       318        64  DCM       H2              3.4461565460       -0.0301143104        1.1806671368  CLST      64              1.0000000000
       319        64  DCM       CL1             1.5276571686        0.4075969452        2.5448359110  CLST      64              1.0000000000
       320        64  DCM       CL2             2.3330582850       -2.1395533013        1.3554989813  CLST      64              1.0000000000
       321        65  DCM       C              -0.7574703959        2.3636049653       -2.1479877309  CLST      65              1.0000000000
       322        65  DCM       H1             -0.8188857167        2.1405241725       -3.2341258333  CLST      65              1.0000000000
       323        65  DCM       H2             -0.7450695867        1.4267455943       -1.5528898582  CLST      65              1.0000000000
       324        65  DCM       CL1             0.7387055724        3.2834955999       -1.8171035789  CLST      65              1.0000000000
       325        65  DCM       CL2            -2.1772011637        3.3370212211       -1.6725318282  CLST      65              1.0000000000
       326        66  DCM       C               1.8841749599       -3.2536993059        0.9532114450  CLST      66              1.0000000000
       327        66  DCM       H1              1.3664415282       -4.2021909643        0.6976021543  CLST      66              1.0000000000
       328        66  DCM       H2              1.7573318216       -3.0084285893        2.0288986874  CLST      66              1.0000000000
       329        66  DCM       CL1             3.6260200553       -3.4270485043        0.5935073887  CLST      66              1.0000000000
       330        66  DCM       CL2             1.1965940324       -1.9318847816       -0.0322333679  CLST      66              1.0000000000
       331        67  DCM       C              -1.5531855472       -1.8799710207        2.2734948248  CLST      67              1.0000000000
       332        67  DCM       H1             -0.5112382429       -1.5696960694        2.0492266999  CLST      67              1.0000000000
       333        67  DCM       H2             -2.2292220925       -1.6414559965        1.4254767418  CLST      67              1.0000000000
       334        67  DCM       CL1            -1.5794160709       -3.6408435579        2.5644172823  CLST      67              1.0000000000
       335        67  DCM       CL2            -2.1184572488       -1.0112929268        3.7285665624  CLST      67              1.0000000000
       336        68  DCM       C              -2.5956567894       -0.7307959778        0.9786968052  CLST      68              1.0000000000
       337        68  DCM       H1             -3.1624252109       -0.0003685538        0.3630014531  CLST      68              1.0000000000
       338        68  DCM       H2             -1.6693113604       -0.2738229321        1.3862735138  CLST      68              1.0000000000
       339        68  DCM       CL1            -3.6247373326       -1.2716542102        2.3316368597  CLST      68              1.0000000000
       340        68  DCM       CL2            -2.1625578515       -2.1383123558       -0.0306626578  CLST      68              1.0000000000
       341        69  DCM       C               2.8518013703       -0.6189764661       -0.1974221920  CLST      69              1.0000000000
       342        69  DCM       H1              2.8180120784        0.3620899939        0.3229536481  CLST      69              1.0000000000
       343        69  DCM       H2              3.6144596991       -0.6134570544       -1.0037672032  CLST      69              1.0000000000
       344        69  DCM       CL1             1.2510279729       -0.9555957905       -0.9163056084  CLST      69              1.0000000000
       345        69  DCM       CL2             3.2616206410       -1.8944570336        0.9859025405  CLST      69              1.0000000000
       346        70  DCM       C               1.2497048766       -0.5479788988        0.4526734839  CLST      70              1.0000000000
       347        70  DCM       H1              1.6994563056       -1.1634892403       -0.3552307207  CLST      70              1.0000000000
       348        70  DCM       H2              1.8649530695        0.3520159816        0.6609597417  CLST      70              1.0000000000
       349        70  DCM       CL1            -0.3872500966       -0.0335139270       -0.0457082168  CLST      70              1.0000000000
       350        70  DCM       CL2             1.1435915962       -1.5350858800        1.9372752073  CLST      70              1.0000000000
       351        71  DCM       C               0.5867142742        2.7843934794       -2.0696502243  CLST      71              1.0000000000
       352        71  DCM       H1              0.8745809691        3.5969693485       -1.3713512684  CLST      71              1.0000000000
       353        71  DCM       H2              1.4121308030        2.5475768751       -2.7710251041  CLST      71              1.0000000000
       354        71  DCM       CL1            -0.8391003161        3.3047886871       -3.0121852086  CLST      71              1.0000000000
       355        71  DCM       CL2             0.1924786667        1.3207577021       -1.1241062408  CLST      71              1.0000000000
       356        72  DCM       C               2.5098948790        1.2939448317        1.7166539847  CLST      72              1.0000000000
       357        72  DCM       H1              2.8949625124        1.7071296364        0.7621026265  CLST      72              1.0000000000
       358        72  DCM       H2              1.5891326851        0.6968374963        1.5469620874  CLST      72              1.0000000000
       359        72  DCM       CL1             3.7628195342        0.2497194973        2.4471916564  CLST      72              1.0000000000
       360        72  DCM       CL2             2.1330619075        2.6455146136        2.8208302197  CLST      72              1.0000000000
       361        73  DCM       C              -1.9157781183       -2.1666529054       -1.5968692854  CLST      73              1.0000000000
       362        73  DCM       H1             -2.1130180939       -1.9243528624       -2.6613987898  CLST      73              1.0000000000
       363        73  DCM       H2             -2.2577991623       -1.3461221467       -0.9313502462  CLST      73              1.0000000000
       364        73  DCM       CL1            -2.7936567787       -3.6658808685       -1.1769787266  CLST      73              1.0000000000
       365        73  DCM       CL2            -0.1582267187       -2.4066730707       -1.3751456852  CLST      73              1.0000000000
       366        74  DCM       C               0.3817250630       -0.7424108305        3.5104187168  CLST      74              1.0000000000
       367        74  DCM       H1              0.6173533669       -0.6216788614        4.5888075496  CLST      74              1.0000000000
       368        74  DCM       H2              0.3380199991        0.2424006189        2.9994621617  CLST      74              1.0000000000
       369        74  DCM       CL1             1.6515891490       -1.7428341623        2.7468917931  CLST      74              1.0000000000
       370        74  DCM       CL2            -1.2051655919       -1.5478510548        3.3449077102  CLST      74              1.0000000000
       371        75  DCM       C               2.3052885735        0.0221597111       -2.6026218472  CLST      75              1.0000000000
       372        75  DCM       H1              1.8920620691       -0.1801761766       -1.5922918189  CLST      75              1.0000000000
       373        75  DCM       H2              1.8107452120        0.9002390774       -3.0680608752  CLST      75              1.0000000000
       374        75  DCM       CL1             4.0557589693        0.3472319751       -2.4623589908  CLST      75              1.0000000000
       375        75  DCM       CL2             2.0454098384       -1.4072718360       -3.6406776429  CLST      75              1.0000000000
       376        76  DCM       C              -1.3366658340       -1.4654409173       -1.8697694604  CLST      76              1.0000000000
       377        76  DCM       H1             -1.1474130543       -2.2827845518       -1.1431424007  CLST      76              1.0000000000
       378        76  DCM       H2             -0.7172445779       -1.5903103629       -2.7831195029  CLST      76              1.0000000000
       379        76  DCM       CL1            -0.9468876200        0.0988134399       -1.0985218777  CLST      76              1.0000000000
       380        76  DCM       CL2            -3.0611335949       -1.4968446671       -2.3299530740  CLST      76              1.0000000000
       381        77  DCM       C              -1.8170847166       -1.2356030079       -1.5842080293  CLST      77              1.0000000000
       382        77  DCM       H1             -2.5464851085       -0.5704901764       -2.0944944450  CLST      77              1.0000000000
       383        77  DCM       H2             -0.9260538301       -1.4141203361       -2.2210423759  CLST      77              1.0000000000
       384        77  DCM       CL1            -1.3015865235       -0.4753181716       -0.0514607997  CLST      77              1.0000000000
       385        77  DCM       CL2            -2.6030044158       -2.8001198525       -1.2390811503  CLST      77              1.0000000000
       386        78  DCM       C               1.0809275817       -0.6263499110       -0.7021970312  CLST      78              1.0000000000
       387        78  DCM       H1              0.2223808496       -0.0060926472       -0.3713945041  CLST      78              1.0000000000
       388        78  DCM       H2              1.9240183200       -0.5546709554        0.0170091110  CLST      78              1.0000000000
       389        78  DCM       CL1             0.5516644886       -2.3290531547       -0.8208198973  CLST      78              1.0000000000
       390        78  DCM       CL2             1.6290797846       -0.0499290338       -2.3016126265  CLST      78              1.0000000000
       391        79  DCM       C               3.1384573552       -1.8897419055        2.2820822729  CLST      79              1.0000000000
       392        79  DCM       H1              3.2204751398       -2.5954222858        3.1352988684  CLST      79              1.0000000000
       393        79  DCM       H2              2.0916112810       -1.8166320211        1.9194326540  CLST      79              1.0000000000
       394        79  DCM       CL1             4.1770483096       -2.4623454844        0.9475992533  CLST      79              1.0000000000
       395        79  DCM       CL2             3.6780808148       -0.2732431449        2.8096178499  CLST      79              1.0000000000
       396        80  DCM       C              -1.7428629575       -0.9408341187        1.0586111598  CLST      80              1.0000000000
       397        80  DCM       H1             -1.8526630312       -0.7101652215        2.1369671147  CLST      80              1.0000000000
       398        80  DCM       H2             -0.8458945946       -0.4401342479        0.6362913075  CLST      80              1.0000000000
       399        80  DCM       CL1            -1.5849707409       -2.7086496902        0.8618377647  CLST      80              1.0000000000
       400        80  DCM       CL2            -3.1912885181       -0.3678653344        0.1875907345  CLST      80              1.0000000000
       401        81  DCM       C              -1.8983649934        0.8886747818       -2.4279552179  CLST      81              1.0000000000
       402        81  DCM       H1             -1.1513145965        0.6257668377       -1.6500221358  CLST      81              1.0000000000
       403        81  DCM       H2             -1.5447961607        0.5921840154       -3.4386023024  CLST      81              1.0000000000
       404        81  DCM       CL1            -3.4283913541        0.0331119362       -2.0781295896  CLST      81              1.0000000000
       405        81  DCM       CL2            -2.1694714746        2.6558181398       -2.3984433434  CLST      81              1.0000000000
       406        82  DCM       C               2.2341028300       -1.5804701263        1.1150130405  CLST      82              1.0000000000
       407        82  DCM       H1              1.4448679262       -0.8247413985        1.3133679649  CLST      82              1.0000000000
       408        82  DCM       H2              1.7902108421       -2.5660710417        0.8606655618  CLST      82              1.0000000000
       409        82  DCM       CL1             3.2398312975       -1.0250525081       -0.2552733074  CLST      82              1.0000000000
       410        82  DCM       CL2             3.2468500906       -1.7598830223        2.5777355056  CLST      82              1.0000000000
       411        83  DCM       C               1.2663812891       -2.2175812839       -1.6727938571  CLST      83              1.0000000000
       412        83  DCM       H1              2.0135635580       -3.0271221584       -1.8135044395  CLST      83              1.0000000000
       413        83  DCM       H2              1.5938068736       -1.5088529275       -0.8834071154  CLST      83              1.0000000000
       414        83  DCM       CL1             1.0756282434       -1.3293791213       -3.2116647320  CLST      83              1.0000000000
       415        83  DCM       CL2            -0.2976957418       -2.9394098822       -1.1972028102  CLST      83              1.0000000000
       416        84  DCM       C               2.4082840808        2.8948177962       -2.5949125199  CLST      84              1.0000000000
       417        84  DCM       H1              1.8741209544        2.9211003155       -1.6218985009  CLST      84              1.0000000000
       418        84  DCM       H2              2.2441580382        3.8334292381       -3.1653276859  CLST      84              1.0000000000
       419        84  DCM       CL1             1.7955006472        1.5169209683       -3.5531451638  CLST      84              1.0000000000
       420        84  DCM       CL2             4.1592882970        2.6944739838       -2.2939495373  CLST      84              1.0000000000
       421        85  DCM       C              -2.3178223066        0.6715718069       -1.4292266045  CLST      85              1.0000000000
       422        85  DCM       H1             -2.9083725604        1.1929067440       -0.6461537926  CLST      85              1.0000000000
       423        85  DCM       H2             -1.8131762900        1.3994309541       -2.0991516826  CLST      85              1.0000000000
       424        85  DCM       CL1            -1.0806035501       -0.3469861377       -0.6388289189  CLST      85              1.0000000000
       425        85  DCM       CL2            -3.4136007074       -0.3500693342       -2.4040646454  CLST      85              1.0000000000
       426        86  DCM       C              -3.2729223407        2.4394944838        0.1878986192  CLST      86              1.0000000000
       427        86  DCM       H1             -4.3448350139        2.5327077656       -0.0870117704  CLST      86              1.0000000000
       428        86  DCM       H2             -3.0218667998        3.0911613398        1.0485610084  CLST      86              1.0000000000
       429        86  DCM       CL1            -2.9310473450        0.7393740932        0.6203754505  CLST      86              1.0000000000
       430        86  DCM       CL2            -2.2727373589        2.9167027462       -1.2146130300  CLST      86              1.0000000000
       431        87  DCM       C               1.1980867679        1.1392329267       -0.1332137305  CLST      87              1.0000000000
       432        87  DCM       H1              0.9434698105        1.2078170600        0.9446558954  CLST      87              1.0000000000
       433        87  DCM       H2              0.9902542633        0.1218150760       -0.5215202024  CLST      87              1.0000000000
       434        87  DCM       CL1             0.2125393212        2.3111481125       -1.0545424195  CLST      87              1.0000000000
       435        87  DCM       CL2             2.9364324547        1.5011156031       -0.3393289019  CLST      87              1.0000000000
       436        88  DCM       C              -0.6279908442        2.7318785875        0.1868552020  CLST      88              1.0000000000
       437        88  DCM       H1              0.3031160061        2.4880841220        0.7459361797  CLST      88              1.0000000000
       438        88  DCM       H2             -1.0575615311        3.6937525835        0.5276035044  CLST      88              1.0000000000
       439        88  DCM       CL1            -0.2491037567        2.8404583952       -1.5576474982  CLST      88              1.0000000000
       440        88  DCM       CL2            -1.8272848574        1.4374392123        0.4671097260  CLST      88              1.0000000000
       441        89  DCM       C              -0.3986137255        0.5946547918        2.3896954319  CLST      89              1.0000000000
       442        89  DCM       H1             -1.2018028064        1.3466159630        2.5355434630  CLST      89              1.0000000000
       443        89  DCM       H2              0.5687522208        0.9609045186        2.7935836975  CLST      89              1.0000000000
       444        89  DCM       CL1            -0.8534269514       -0.9111168065        3.2367628010  CLST      89              1.0000000000
       445        89  DCM       CL2            -0.2140080268        0.2728805369        0.6421513674  CLST      89              1.0000000000
       446        90  DCM       C               3.1664643521       -0.8641704261        2.8241672680  CLST      90              1.0000000000
       447        90  DCM       H1              3.6456090678       -0.5817183304        3.7845471526  CLST      90              1.0000000000
       448        90  DCM       H2              3.3108187314       -0.0767004987        2.0577246545  CLST      90              1.0000000000
       449        90  DCM       CL1             3.8953986645       -2.3839255650        2.2321537231  CLST      90              1.0000000000
       450        90  DCM       CL2             1.4144695200       -1.0895224353        3.0881382904  CLST      90              1.0000000000
       451        91  DCM       C              -2.5414856099        2.9915960899       -1.9264497646  CLST      91              1.0000000000
       452        91  DCM       H1             -2.5638095363        2.9126033752       -0.8198000123  CLST      91              1.0000000000
       453        91  DCM       H2             -2.1674732927        2.0513448604       -2.3839580080  CLST      91              1.0000000000
       454        91  DCM       CL1            -4.1958418152        3.3111351200       -2.5231753529  CLST      91              1.0000000000
       455        91  DCM       CL2            -1.4600628611        4.3385213373       -2.3864425285  CLST      91              1.0000000000
       456        92  DCM       C              -2.2420575929       -1.4578261515        0.3589754475  CLST      92              1.0000000000
       457        92  DCM       H1             -2.5634108403       -1.3686199967        1.4171878839  CLST      92              1.0000000000
       458        92  DCM       H2             -1.3901791292       -2.1624891969        0.2584423284  CLST      92              1.0000000000
       459        92  DCM       CL1            -3.6169852455       -2.0599968947       -0.6134205725  CLST      92              1.0000000000
       460        92  DCM       CL2            -1.7381083825        0.1526997871       -0.2319648981  CLST      92              1.0000000000
