* INITIAL
*  DATE:     6/28/26      1:59:17      CREATED BY USER: boittier
*
       490  EXT
         1         1  DCM       C               7.7395768101       -2.1953167943       -2.1496619861  CLST      1               1.0000000000
         2         1  DCM       H1              6.7538033291       -2.7011166565       -2.2241157044  CLST      1               1.0000000000
         3         1  DCM       H2              7.7559602937       -1.2670042057       -2.7563420672  CLST      1               1.0000000000
         4         1  DCM       CL1             8.0621599506       -1.7806216811       -0.4409160704  CLST      1               1.0000000000
         5         1  DCM       CL2             9.0070141037       -3.2975777549       -2.7555642142  CLST      1               1.0000000000
         6         2  DCM       C              11.0671794927        0.6606511802       -0.7358104367  CLST      2               1.0000000000
         7         2  DCM       H1             11.9005280670        1.3876794579       -0.8115541751  CLST      2               1.0000000000
         8         2  DCM       H2             10.0920999258        1.1428128202       -0.9572348345  CLST      2               1.0000000000
         9         2  DCM       CL1            11.3409282307       -0.6648319891       -1.8996684944  CLST      2               1.0000000000
        10         2  DCM       CL2            11.0156851705        0.0103725454        0.9231973341  CLST      2               1.0000000000
        11         3  DCM       C              -2.5454790960      -10.2990746865       -6.2420825799  CLST      3               1.0000000000
        12         3  DCM       H1             -3.6566637989      -10.2944480177       -6.2379669712  CLST      3               1.0000000000
        13         3  DCM       H2             -2.1425900629       -9.5039898629       -5.5801119469  CLST      3               1.0000000000
        14         3  DCM       CL1            -1.9715436004      -11.8910369327       -5.6685381767  CLST      3               1.0000000000
        15         3  DCM       CL2            -1.9749992961      -10.0188689880       -7.9115693737  CLST      3               1.0000000000
        16         4  DCM       C              -2.4201717841        7.6840963234       -0.9974103838  CLST      4               1.0000000000
        17         4  DCM       H1             -1.8130800727        8.0670647603       -0.1515465677  CLST      4               1.0000000000
        18         4  DCM       H2             -2.8000787013        8.5170200848       -1.6255461882  CLST      4               1.0000000000
        19         4  DCM       CL1            -1.4173867796        6.6080330816       -2.0132759737  CLST      4               1.0000000000
        20         4  DCM       CL2            -3.8099242168        6.7770281725       -0.3420042982  CLST      4               1.0000000000
        21         5  DCM       C              -4.7739692337        8.4375653273       -5.5815937096  CLST      5               1.0000000000
        22         5  DCM       H1             -4.3928274129        9.4760169851       -5.4782185517  CLST      5               1.0000000000
        23         5  DCM       H2             -5.8812791707        8.4109823133       -5.5087091157  CLST      5               1.0000000000
        24         5  DCM       CL1            -4.2793789297        7.7931571492       -7.1726024508  CLST      5               1.0000000000
        25         5  DCM       CL2            -4.0789525703        7.4283745902       -4.2825235102  CLST      5               1.0000000000
        26         6  DCM       C               4.2162112369       -0.1893997188        2.2490245404  CLST      6               1.0000000000
        27         6  DCM       H1              4.4855611449        0.7273480256        1.6859205489  CLST      6               1.0000000000
        28         6  DCM       H2              3.9909092663       -1.0290024071        1.5617016978  CLST      6               1.0000000000
        29         6  DCM       CL1             5.5882433283       -0.6411110858        3.2980298075  CLST      6               1.0000000000
        30         6  DCM       CL2             2.7709844453        0.1444691544        3.2412063203  CLST      6               1.0000000000
        31         7  DCM       C              -0.3016661475       -2.1200095747        8.0716530585  CLST      7               1.0000000000
        32         7  DCM       H1             -0.0455920357       -2.7673965648        7.2071230180  CLST      7               1.0000000000
        33         7  DCM       H2              0.6124735108       -1.7575561608        8.5861061446  CLST      7               1.0000000000
        34         7  DCM       CL1            -1.2272678711       -0.7101767392        7.4853354062  CLST      7               1.0000000000
        35         7  DCM       CL2            -1.2825869065       -3.0629795498        9.2273402394  CLST      7               1.0000000000
        36         8  DCM       C              -8.7824684705        2.7277849550       -5.3713080009  CLST      8               1.0000000000
        37         8  DCM       H1             -8.0050982210        2.7839169364       -4.5807582227  CLST      8               1.0000000000
        38         8  DCM       H2             -8.6376647775        3.5253739011       -6.1287878775  CLST      8               1.0000000000
        39         8  DCM       CL1            -8.6759830051        1.1342707373       -6.1726901772  CLST      8               1.0000000000
        40         8  DCM       CL2           -10.3898401275        2.9193603348       -4.6163185692  CLST      8               1.0000000000
        41         9  DCM       C               6.5644139698       -0.0025860849      -10.7407063849  CLST      9               1.0000000000
        42         9  DCM       H1              6.1989550066        0.9686830725      -10.3440175549  CLST      9               1.0000000000
        43         9  DCM       H2              7.6324470744        0.0630597271      -11.0371389412  CLST      9               1.0000000000
        44         9  DCM       CL1             6.3907074584       -1.2542423254       -9.4756886418  CLST      9               1.0000000000
        45         9  DCM       CL2             5.5881055712       -0.4412078821      -12.1722649024  CLST      9               1.0000000000
        46        10  DCM       C              -0.2596018221       -7.3313102085        1.5093627043  CLST      10              1.0000000000
        47        10  DCM       H1              0.1691927578       -8.3473995366        1.3901815639  CLST      10              1.0000000000
        48        10  DCM       H2             -0.1241334793       -6.9559129547        2.5456145902  CLST      10              1.0000000000
        49        10  DCM       CL1             0.5592362514       -6.2283609683        0.3678481718  CLST      10              1.0000000000
        50        10  DCM       CL2            -2.0031241544       -7.3997367443        1.1365867354  CLST      10              1.0000000000
        51        11  DCM       C              -0.8443513236        8.9496144594        4.2757867276  CLST      11              1.0000000000
        52        11  DCM       H1             -0.5303726893       10.0108351110        4.1865056349  CLST      11              1.0000000000
        53        11  DCM       H2             -0.0071287654        8.2652736174        4.0286347190  CLST      11              1.0000000000
        54        11  DCM       CL1            -1.3685183243        8.6360557371        5.9551345072  CLST      11              1.0000000000
        55        11  DCM       CL2            -2.2007236579        8.6465142145        3.1522512790  CLST      11              1.0000000000
        56        12  DCM       C             -13.1805831923       -3.4255175105        2.8280032582  CLST      12              1.0000000000
        57        12  DCM       H1            -14.0864596124       -2.7930181762        2.7101406778  CLST      12              1.0000000000
        58        12  DCM       H2            -12.7778906277       -3.7288073846        1.8390757925  CLST      12              1.0000000000
        59        12  DCM       CL1           -11.9294812207       -2.4956640634        3.7007151417  CLST      12              1.0000000000
        60        12  DCM       CL2           -13.6066896823       -4.8930143506        3.7548926640  CLST      12              1.0000000000
        61        13  DCM       C              10.5608679533        5.5637263274       -2.5000450334  CLST      13              1.0000000000
        62        13  DCM       H1             10.4803481959        5.3255304207       -3.5818160460  CLST      13              1.0000000000
        63        13  DCM       H2             11.4761338933        6.1558977459       -2.2890640739  CLST      13              1.0000000000
        64        13  DCM       CL1             9.1255406186        6.5044257201       -1.9974395570  CLST      13              1.0000000000
        65        13  DCM       CL2            10.6335632846        4.0372968818       -1.5756212600  CLST      13              1.0000000000
        66        14  DCM       C               3.6121194350       -1.1105884819        6.7047822676  CLST      14              1.0000000000
        67        14  DCM       H1              4.3912657866       -0.9195589708        7.4708924241  CLST      14              1.0000000000
        68        14  DCM       H2              4.0422716257       -1.0777880020        5.6815496370  CLST      14              1.0000000000
        69        14  DCM       CL1             2.9093822716       -2.7296288165        6.9803087248  CLST      14              1.0000000000
        70        14  DCM       CL2             2.3378879225        0.1368020721        6.8405787702  CLST      14              1.0000000000
        71        15  DCM       C              -9.9256638465        5.6659712270       -1.3833654324  CLST      15              1.0000000000
        72        15  DCM       H1             -9.1345371996        6.1895335942       -1.9596804532  CLST      15              1.0000000000
        73        15  DCM       H2            -10.1270362702        6.1844627961       -0.4226726678  CLST      15              1.0000000000
        74        15  DCM       CL1           -11.4232857902        5.6377622130       -2.3583709590  CLST      15              1.0000000000
        75        15  DCM       CL2            -9.3870426384        3.9953657709       -1.0440402394  CLST      15              1.0000000000
        76        16  DCM       C              -3.3213042540       -6.4170047224       -8.0913964949  CLST      16              1.0000000000
        77        16  DCM       H1             -2.7256583320       -7.1781657959       -8.6397190199  CLST      16              1.0000000000
        78        16  DCM       H2             -3.9758332195       -5.8478979947       -8.7833685133  CLST      16              1.0000000000
        79        16  DCM       CL1            -4.3389493618       -7.2438188205       -6.8766351351  CLST      16              1.0000000000
        80        16  DCM       CL2            -2.2077290273       -5.2794574726       -7.2775220306  CLST      16              1.0000000000
        81        17  DCM       C              -4.5945270216       -2.2521819943        8.7133159980  CLST      17              1.0000000000
        82        17  DCM       H1             -3.8356061103       -1.4421558674        8.7059032227  CLST      17              1.0000000000
        83        17  DCM       H2             -4.1633965098       -3.2094088903        8.3527497309  CLST      17              1.0000000000
        84        17  DCM       CL1            -5.1803995584       -2.4754088640       10.3860584785  CLST      17              1.0000000000
        85        17  DCM       CL2            -5.9467298922       -1.7861175037        7.6446732809  CLST      17              1.0000000000
        86        18  DCM       C              -2.9610915267       -0.9186988656       -0.4520125807  CLST      18              1.0000000000
        87        18  DCM       H1             -4.0441038557       -1.1630777490       -0.4293645615  CLST      18              1.0000000000
        88        18  DCM       H2             -2.6651306271       -0.3545555348        0.4572772829  CLST      18              1.0000000000
        89        18  DCM       CL1            -2.0295299220       -2.4424047414       -0.5317666023  CLST      18              1.0000000000
        90        18  DCM       CL2            -2.6173535164        0.0807441683       -1.8941494307  CLST      18              1.0000000000
        91        19  DCM       C               8.3921828774        8.3154105816        3.0056109854  CLST      19              1.0000000000
        92        19  DCM       H1              9.4952111434        8.3873482836        3.1013720674  CLST      19              1.0000000000
        93        19  DCM       H2              7.8945846179        9.1715500279        3.5087226187  CLST      19              1.0000000000
        94        19  DCM       CL1             7.9532665493        8.3206293216        1.2729911305  CLST      19              1.0000000000
        95        19  DCM       CL2             7.8391626107        6.7941093309        3.7627165708  CLST      19              1.0000000000
        96        20  DCM       C              12.7507644331        1.5647264965       -4.5010726272  CLST      20              1.0000000000
        97        20  DCM       H1             12.6906884520        0.4708127941       -4.3175751263  CLST      20              1.0000000000
        98        20  DCM       H2             13.3590242307        1.7840682947       -5.4035543186  CLST      20              1.0000000000
        99        20  DCM       CL1            11.0990856385        2.2062350583       -4.7409726386  CLST      20              1.0000000000
       100        20  DCM       CL2            13.5082964356        2.3508009177       -3.0850211531  CLST      20              1.0000000000
       101        21  DCM       C              -7.5563265020       -9.6755308085        1.2284944168  CLST      21              1.0000000000
       102        21  DCM       H1             -6.7020759158      -10.3413117691        0.9791782799  CLST      21              1.0000000000
       103        21  DCM       H2             -8.3158481444       -9.6749058040        0.4188085116  CLST      21              1.0000000000
       104        21  DCM       CL1            -8.3197384601      -10.2550297964        2.7368560355  CLST      21              1.0000000000
       105        21  DCM       CL2            -6.9484137948       -8.0095144031        1.4557618429  CLST      21              1.0000000000
       106        22  DCM       C               4.4867779234       -8.6731847343       -2.2969328975  CLST      22              1.0000000000
       107        22  DCM       H1              5.1190574617       -8.0763489690       -2.9888470441  CLST      22              1.0000000000
       108        22  DCM       H2              4.1885265120       -9.6370285284       -2.7592096741  CLST      22              1.0000000000
       109        22  DCM       CL1             3.0165375855       -7.7367003385       -1.9035759695  CLST      22              1.0000000000
       110        22  DCM       CL2             5.4105074165       -9.0110393335       -0.8045608562  CLST      22              1.0000000000
       111        23  DCM       C               2.8991296753       -9.3991795721        1.9103701161  CLST      23              1.0000000000
       112        23  DCM       H1              3.9582386864       -9.6976079389        2.0526250655  CLST      23              1.0000000000
       113        23  DCM       H2              2.8186758465       -8.3189947443        1.6656930722  CLST      23              1.0000000000
       114        23  DCM       CL1             2.2010590138      -10.3482484318        0.5676896523  CLST      23              1.0000000000
       115        23  DCM       CL2             1.9891611722       -9.7209045457        3.4144090718  CLST      23              1.0000000000
       116        24  DCM       C              -5.8083675403        4.2303113667       -2.0701122777  CLST      24              1.0000000000
       117        24  DCM       H1             -5.7057087457        4.8811519035       -1.1764442166  CLST      24              1.0000000000
       118        24  DCM       H2             -6.3296802580        3.2876046378       -1.8087762009  CLST      24              1.0000000000
       119        24  DCM       CL1            -4.1834881993        3.8451716321       -2.7041573489  CLST      24              1.0000000000
       120        24  DCM       CL2            -6.7483603253        5.1000381438       -3.3142514520  CLST      24              1.0000000000
       121        25  DCM       C              -7.0602002696        1.9480051399        1.5465849207  CLST      25              1.0000000000
       122        25  DCM       H1             -8.0021598823        1.9036393744        0.9587965325  CLST      25              1.0000000000
       123        25  DCM       H2             -7.2400077586        1.6914313916        2.6118138332  CLST      25              1.0000000000
       124        25  DCM       CL1            -5.8915981029        0.7825726165        0.8596345694  CLST      25              1.0000000000
       125        25  DCM       CL2            -6.3947389520        3.6050167644        1.4528584922  CLST      25              1.0000000000
       126        26  DCM       C               4.6008336371        9.0599064968        3.0719650397  CLST      26              1.0000000000
       127        26  DCM       H1              4.5589264160        9.8994296599        2.3457781957  CLST      26              1.0000000000
       128        26  DCM       H2              5.2804582031        8.2565953208        2.7184162371  CLST      26              1.0000000000
       129        26  DCM       CL1             5.1971054510        9.6768516927        4.6391904070  CLST      26              1.0000000000
       130        26  DCM       CL2             2.9618916398        8.3791422980        3.2713791168  CLST      26              1.0000000000
       131        27  DCM       C               2.3658304545       11.8410862558        5.5712140688  CLST      27              1.0000000000
       132        27  DCM       H1              1.7856559453       12.6518708879        6.0603298307  CLST      27              1.0000000000
       133        27  DCM       H2              3.4580089524       12.0053371182        5.6882248063  CLST      27              1.0000000000
       134        27  DCM       CL1             1.9288164560       10.2777930453        6.3197966997  CLST      27              1.0000000000
       135        27  DCM       CL2             1.9657805491       11.8101076845        3.8299714129  CLST      27              1.0000000000
       136        28  DCM       C              -9.3826658541        6.6580299422       -5.3741970022  CLST      28              1.0000000000
       137        28  DCM       H1            -10.2866221210        6.7736027900       -6.0086837096  CLST      28              1.0000000000
       138        28  DCM       H2             -9.4639132490        5.7614502729       -4.7249862058  CLST      28              1.0000000000
       139        28  DCM       CL1            -7.9465209988        6.4888580584       -6.4240000804  CLST      28              1.0000000000
       140        28  DCM       CL2            -9.2102091942        8.1058183446       -4.3432464134  CLST      28              1.0000000000
       141        29  DCM       C               3.6837638211       -4.6403518464        0.1187166460  CLST      29              1.0000000000
       142        29  DCM       H1              2.7300707210       -4.3011265446        0.5705529696  CLST      29              1.0000000000
       143        29  DCM       H2              3.5271377256       -5.0133321629       -0.9155421710  CLST      29              1.0000000000
       144        29  DCM       CL1             4.3667338056       -5.9606907577        1.1099983432  CLST      29              1.0000000000
       145        29  DCM       CL2             4.8202336965       -3.2659215839        0.0681078135  CLST      29              1.0000000000
       146        30  DCM       C               6.9928474554       -4.2742808301        4.4590198714  CLST      30              1.0000000000
       147        30  DCM       H1              6.5267518407       -5.2707679109        4.6082093121  CLST      30              1.0000000000
       148        30  DCM       H2              6.3919588548       -3.4751438915        4.9444612394  CLST      30              1.0000000000
       149        30  DCM       CL1             8.6325002250       -4.2842268426        5.1674991302  CLST      30              1.0000000000
       150        30  DCM       CL2             7.0972997524       -3.9384758457        2.7090882267  CLST      30              1.0000000000
       151        31  DCM       C               4.2573021233       -0.4720402686       -2.4813284315  CLST      31              1.0000000000
       152        31  DCM       H1              3.2320565012       -0.0626127413       -2.5942739688  CLST      31              1.0000000000
       153        31  DCM       H2              4.2290385366       -1.5682895900       -2.3104555316  CLST      31              1.0000000000
       154        31  DCM       CL1             5.1862728410       -0.1305998677       -3.9643171457  CLST      31              1.0000000000
       155        31  DCM       CL2             5.0552986235        0.3115483838       -1.0928121659  CLST      31              1.0000000000
       156        32  DCM       C               1.5333838217        6.5131380618        0.0715356281  CLST      32              1.0000000000
       157        32  DCM       H1              2.5574427271        6.8184392991        0.3696959386  CLST      32              1.0000000000
       158        32  DCM       H2              1.2046831342        7.0643697485       -0.8339221059  CLST      32              1.0000000000
       159        32  DCM       CL1             1.5255004424        4.7646067297       -0.2793665545  CLST      32              1.0000000000
       160        32  DCM       CL2             0.4121932986        6.8610691632        1.4146045085  CLST      32              1.0000000000
       161        33  DCM       C              11.3149821228        6.3528516602        1.2839389259  CLST      33              1.0000000000
       162        33  DCM       H1             10.5880302541        7.1612804757        1.0611022532  CLST      33              1.0000000000
       163        33  DCM       H2             10.9240218316        5.3672348271        0.9615125275  CLST      33              1.0000000000
       164        33  DCM       CL1            12.8377412887        6.6854118475        0.4101597943  CLST      33              1.0000000000
       165        33  DCM       CL2            11.6179013743        6.2999192773        3.0444635744  CLST      33              1.0000000000
       166        34  DCM       C               7.8022819045       -5.7650577280       -0.3558079806  CLST      34              1.0000000000
       167        34  DCM       H1              7.2814995272       -6.0163657247        0.5898927947  CLST      34              1.0000000000
       168        34  DCM       H2              8.2757595156       -4.7632855883       -0.2915538940  CLST      34              1.0000000000
       169        34  DCM       CL1             9.0648034416       -6.9876812628       -0.6735363612  CLST      34              1.0000000000
       170        34  DCM       CL2             6.6149893230       -5.7623632394       -1.6889830459  CLST      34              1.0000000000
       171        35  DCM       C              -1.5665989413       14.0840128189        4.9514059132  CLST      35              1.0000000000
       172        35  DCM       H1             -2.0489264221       14.7376199123        5.7087940647  CLST      35              1.0000000000
       173        35  DCM       H2             -2.2349151484       13.9265783764        4.0786946508  CLST      35              1.0000000000
       174        35  DCM       CL1            -0.0532714071       14.8519505952        4.3902315084  CLST      35              1.0000000000
       175        35  DCM       CL2            -1.2012441381       12.5020465154        5.6985448796  CLST      35              1.0000000000
       176        36  DCM       C              -9.5712054790       -1.4657269875        6.5420510779  CLST      36              1.0000000000
       177        36  DCM       H1             -8.8725378157       -2.1721121543        7.0360983602  CLST      36              1.0000000000
       178        36  DCM       H2             -9.7109298533       -1.7298030065        5.4731667743  CLST      36              1.0000000000
       179        36  DCM       CL1           -11.1525696269       -1.5401669102        7.3724236813  CLST      36              1.0000000000
       180        36  DCM       CL2            -8.8999634597        0.1874723147        6.6498275991  CLST      36              1.0000000000
       181        37  DCM       C              -4.3363640613       11.6109177835       -0.0655459425  CLST      37              1.0000000000
       182        37  DCM       H1             -4.0217825806       12.4016547965        0.6482893565  CLST      37              1.0000000000
       183        37  DCM       H2             -5.2855834339       11.8875184695       -0.5695196285  CLST      37              1.0000000000
       184        37  DCM       CL1            -3.0606673000       11.3932303899       -1.2982214811  CLST      37              1.0000000000
       185        37  DCM       CL2            -4.5745252608       10.0857841805        0.8315061978  CLST      37              1.0000000000
       186        38  DCM       C              10.7339523819       -3.6632431309        1.4674111896  CLST      38              1.0000000000
       187        38  DCM       H1              9.6265241510       -3.6847871999        1.4019974248  CLST      38              1.0000000000
       188        38  DCM       H2             11.0899312295       -2.6726564435        1.8122379187  CLST      38              1.0000000000
       189        38  DCM       CL1            11.2780737596       -4.9062654749        2.6283419539  CLST      38              1.0000000000
       190        38  DCM       CL2            11.4176775834       -4.0003245821       -0.1479394691  CLST      38              1.0000000000
       191        39  DCM       C              -5.2840274665       -4.5065359381        0.8778211959  CLST      39              1.0000000000
       192        39  DCM       H1             -5.1995493350       -3.4004811130        0.8233533963  CLST      39              1.0000000000
       193        39  DCM       H2             -6.3431459200       -4.8225540943        0.9873873066  CLST      39              1.0000000000
       194        39  DCM       CL1            -4.6112511025       -5.2165751810       -0.6193809908  CLST      39              1.0000000000
       195        39  DCM       CL2            -4.3605319180       -5.0876822002        2.2924302836  CLST      39              1.0000000000
       196        40  DCM       C             -10.0224415805        8.3233833471      -10.5069351708  CLST      40              1.0000000000
       197        40  DCM       H1             -8.9295487460        8.5014257001      -10.5994348507  CLST      40              1.0000000000
       198        40  DCM       H2            -10.6032365117        9.1891411293      -10.8905092640  CLST      40              1.0000000000
       199        40  DCM       CL1           -10.4570563868        6.8705706374      -11.4524131674  CLST      40              1.0000000000
       200        40  DCM       CL2           -10.4278236971        8.0683994724       -8.7850294218  CLST      40              1.0000000000
       201        41  DCM       C               8.4499807541       -6.5680132674       -4.6507650157  CLST      41              1.0000000000
       202        41  DCM       H1              9.2289151004       -6.6685882879       -5.4358287807  CLST      41              1.0000000000
       203        41  DCM       H2              8.8611387173       -6.0813545102       -3.7417460747  CLST      41              1.0000000000
       204        41  DCM       CL1             7.1067570817       -5.5744596497       -5.2887583688  CLST      41              1.0000000000
       205        41  DCM       CL2             7.8476792368       -8.1940336923       -4.2136968941  CLST      41              1.0000000000
       206        42  DCM       C               9.0994222638       -0.7950101494       -6.0375906595  CLST      42              1.0000000000
       207        42  DCM       H1              9.2408204291       -0.5437144010       -7.1116884865  CLST      42              1.0000000000
       208        42  DCM       H2              8.8922288318        0.1129998278       -5.4370947871  CLST      42              1.0000000000
       209        42  DCM       CL1             7.7200475382       -1.9222924185       -5.8882775976  CLST      42              1.0000000000
       210        42  DCM       CL2            10.5924728023       -1.5659148494       -5.4302908706  CLST      42              1.0000000000
       211        43  DCM       C               8.7267065347       -6.6942704972        7.8802916802  CLST      43              1.0000000000
       212        43  DCM       H1              8.2972775418       -5.6887773286        7.6895163575  CLST      43              1.0000000000
       213        43  DCM       H2              9.8350316508       -6.6754380854        7.8064140480  CLST      43              1.0000000000
       214        43  DCM       CL1             8.2557707383       -7.2188157439        9.5225635022  CLST      43              1.0000000000
       215        43  DCM       CL2             8.0830608282       -7.8394361909        6.6690199102  CLST      43              1.0000000000
       216        44  DCM       C               2.7118019786       -1.8446658407      -10.1525918296  CLST      44              1.0000000000
       217        44  DCM       H1              2.7422625858       -2.0706728538      -11.2441459527  CLST      44              1.0000000000
       218        44  DCM       H2              3.5835534173       -2.2851615720       -9.6327591911  CLST      44              1.0000000000
       219        44  DCM       CL1             2.7312484467       -0.0723107700       -9.9284673351  CLST      44              1.0000000000
       220        44  DCM       CL2             1.2124061161       -2.5217372236       -9.4556810746  CLST      44              1.0000000000
       221        45  DCM       C              -0.6958482126       13.2853346733        0.9892296968  CLST      45              1.0000000000
       222        45  DCM       H1             -0.4924408160       12.9194311223       -0.0412203552  CLST      45              1.0000000000
       223        45  DCM       H2              0.2240712008       13.6908421802        1.4578249812  CLST      45              1.0000000000
       224        45  DCM       CL1            -1.9339028239       14.5719248502        0.9146369703  CLST      45              1.0000000000
       225        45  DCM       CL2            -1.2998349550       11.9258442512        1.9775357111  CLST      45              1.0000000000
       226        46  DCM       C              -6.3169653595        0.3387276746       -2.9934475795  CLST      46              1.0000000000
       227        46  DCM       H1             -5.4983310913        0.9564703193       -2.5678882563  CLST      46              1.0000000000
       228        46  DCM       H2             -6.3611850202        0.4415663347       -4.0990265499  CLST      46              1.0000000000
       229        46  DCM       CL1            -6.0271432987       -1.3763457608       -2.5802503817  CLST      46              1.0000000000
       230        46  DCM       CL2            -7.8753154600        0.8699625769       -2.2972773087  CLST      46              1.0000000000
       231        47  DCM       C              -1.8017833613        4.0982417141        1.0217871364  CLST      47              1.0000000000
       232        47  DCM       H1             -0.8723733005        3.5790776832        1.3374304642  CLST      47              1.0000000000
       233        47  DCM       H2             -1.5931797160        4.8160952057        0.2055247088  CLST      47              1.0000000000
       234        47  DCM       CL1            -2.4819050672        4.9831498403        2.4186759464  CLST      47              1.0000000000
       235        47  DCM       CL2            -2.9716851716        2.8831975428        0.4380996716  CLST      47              1.0000000000
       236        48  DCM       C               7.1872839297       -8.3910019642        2.5888767262  CLST      48              1.0000000000
       237        48  DCM       H1              6.8291271155       -8.1264490069        1.5723716245  CLST      48              1.0000000000
       238        48  DCM       H2              7.4961653114       -9.4558915903        2.6401744850  CLST      48              1.0000000000
       239        48  DCM       CL1             8.5859927554       -7.3576142629        2.9982532757  CLST      48              1.0000000000
       240        48  DCM       CL2             5.8675551751       -8.1111289765        3.7585518842  CLST      48              1.0000000000
       241        49  DCM       C              -6.8589958495       -3.9779789718        4.9113013487  CLST      49              1.0000000000
       242        49  DCM       H1             -5.7727180746       -4.1225337120        5.0847761283  CLST      49              1.0000000000
       243        49  DCM       H2             -7.4180819403       -3.9738830705        5.8700155259  CLST      49              1.0000000000
       244        49  DCM       CL1            -7.1147012970       -2.4221815505        4.0687547328  CLST      49              1.0000000000
       245        49  DCM       CL2            -7.4558393260       -5.3173195412        3.8951307094  CLST      49              1.0000000000
       246        50  DCM       C             -14.2477497632       -6.1509173090        0.1881389782  CLST      50              1.0000000000
       247        50  DCM       H1            -14.7155564790       -6.9449604388       -0.4318727165  CLST      50              1.0000000000
       248        50  DCM       H2            -13.8545945167       -6.5660044581        1.1398571614  CLST      50              1.0000000000
       249        50  DCM       CL1           -15.4732491894       -4.9036518398        0.5591375049  CLST      50              1.0000000000
       250        50  DCM       CL2           -12.8988572131       -5.4202094689       -0.7280070394  CLST      50              1.0000000000
       251        51  DCM       C              -1.3264204247      -10.9925279862        1.7296522499  CLST      51              1.0000000000
       252        51  DCM       H1             -1.2504035609      -10.5474357266        0.7154659018  CLST      51              1.0000000000
       253        51  DCM       H2             -0.7843352974      -10.3764394895        2.4773064706  CLST      51              1.0000000000
       254        51  DCM       CL1            -3.0486824957      -11.0870202696        2.1979822494  CLST      51              1.0000000000
       255        51  DCM       CL2            -0.6119600754      -12.6296587105        1.6993188337  CLST      51              1.0000000000
       256        52  DCM       C              -6.4362401336        8.7344104526       -2.0362127092  CLST      52              1.0000000000
       257        52  DCM       H1             -6.6131316625        8.0891162196       -2.9218134054  CLST      52              1.0000000000
       258        52  DCM       H2             -5.3537882368        8.8077241591       -1.8061031385  CLST      52              1.0000000000
       259        52  DCM       CL1            -7.0656636340       10.3712774243       -2.3750901755  CLST      52              1.0000000000
       260        52  DCM       CL2            -7.2873436082        8.0316365019       -0.6308885076  CLST      52              1.0000000000
       261        53  DCM       C             -10.5040386038       -6.8948556827        2.6946517605  CLST      53              1.0000000000
       262        53  DCM       H1            -11.1498500544       -6.6610800355        3.5685178140  CLST      53              1.0000000000
       263        53  DCM       H2             -9.5179175822       -7.2815238167        3.0225674406  CLST      53              1.0000000000
       264        53  DCM       CL1           -11.3062058491       -8.1352207649        1.6897025674  CLST      53              1.0000000000
       265        53  DCM       CL2           -10.2573173322       -5.4052358137        1.7386434543  CLST      53              1.0000000000
       266        54  DCM       C              -8.8925999111       -3.4571689529       10.3339793908  CLST      54              1.0000000000
       267        54  DCM       H1             -9.9685545173       -3.7303208020       10.3660823838  CLST      54              1.0000000000
       268        54  DCM       H2             -8.3710584342       -3.7681464263       11.2638889549  CLST      54              1.0000000000
       269        54  DCM       CL1            -8.7495372642       -1.6847542133       10.1535040087  CLST      54              1.0000000000
       270        54  DCM       CL2            -8.1274366676       -4.2753184040        8.9415839198  CLST      54              1.0000000000
       271        55  DCM       C              -4.3515831707       14.7292291801       -2.3825058973  CLST      55              1.0000000000
       272        55  DCM       H1             -4.3083036165       15.6882937070       -2.9392187559  CLST      55              1.0000000000
       273        55  DCM       H2             -3.3311394614       14.3589745081       -2.1437424223  CLST      55              1.0000000000
       274        55  DCM       CL1            -5.2478282916       14.9826733098       -0.8563985325  CLST      55              1.0000000000
       275        55  DCM       CL2            -5.1936199104       13.5111286967       -3.3854684595  CLST      55              1.0000000000
       276        56  DCM       C               5.5434601131       -4.5252326388        8.6456232443  CLST      56              1.0000000000
       277        56  DCM       H1              6.1147545649       -5.0820953424        9.4179710611  CLST      56              1.0000000000
       278        56  DCM       H2              4.5959373711       -4.1251648425        9.0627606772  CLST      56              1.0000000000
       279        56  DCM       CL1             5.1618051884       -5.6314658784        7.2952172327  CLST      56              1.0000000000
       280        56  DCM       CL2             6.5354700196       -3.1626340242        8.0501938882  CLST      56              1.0000000000
       281        57  DCM       C              -3.5283778272       -1.5285645762        4.7414611253  CLST      57              1.0000000000
       282        57  DCM       H1             -2.6832543144       -0.8444416141        4.9567977325  CLST      57              1.0000000000
       283        57  DCM       H2             -4.4706147387       -1.1503779357        5.1898581507  CLST      57              1.0000000000
       284        57  DCM       CL1            -3.7358649375       -1.6425271783        2.9707476252  CLST      57              1.0000000000
       285        57  DCM       CL2            -3.1481657035       -3.1364810056        5.4235932160  CLST      57              1.0000000000
       286        58  DCM       C               1.7965588237        4.6704183191        4.3216873767  CLST      58              1.0000000000
       287        58  DCM       H1              2.3637449755        4.1788612173        5.1404536698  CLST      58              1.0000000000
       288        58  DCM       H2              2.4085410757        5.4521315173        3.8243861262  CLST      58              1.0000000000
       289        58  DCM       CL1             0.3210558176        5.4202812030        4.9942286196  CLST      58              1.0000000000
       290        58  DCM       CL2             1.3457767136        3.4401755778        3.1135378196  CLST      58              1.0000000000
       291        59  DCM       C              14.2876035326       -1.5103651249        0.6148922743  CLST      59              1.0000000000
       292        59  DCM       H1             15.1651493958       -2.1427236806        0.3622509674  CLST      59              1.0000000000
       293        59  DCM       H2             13.4033480335       -1.7956421857        0.0074099394  CLST      59              1.0000000000
       294        59  DCM       CL1            13.8958315567       -1.7206531220        2.3465945518  CLST      59              1.0000000000
       295        59  DCM       CL2            14.6874432064        0.2004277000        0.2861706587  CLST      59              1.0000000000
       296        60  DCM       C               1.5391358744       10.1622025117        0.4749838503  CLST      60              1.0000000000
       297        60  DCM       H1              2.2224650539        9.2889018973        0.4538268394  CLST      60              1.0000000000
       298        60  DCM       H2              0.9879628486       10.2075828159        1.4369614906  CLST      60              1.0000000000
       299        60  DCM       CL1             2.5065044492       11.6507403928        0.2745444381  CLST      60              1.0000000000
       300        60  DCM       CL2             0.3682597351       10.0138154967       -0.8661208014  CLST      60              1.0000000000
       301        61  DCM       C              -0.0284464298       -2.4635533361        2.6765939068  CLST      61              1.0000000000
       302        61  DCM       H1              0.9807346109       -2.6532881446        2.2513260965  CLST      61              1.0000000000
       303        61  DCM       H2             -0.5703797251       -1.6981742146        2.0865243339  CLST      61              1.0000000000
       304        61  DCM       CL1            -0.9728496307       -3.9767310768        2.6482015046  CLST      61              1.0000000000
       305        61  DCM       CL2             0.1540265910       -1.8990882269        4.3612601592  CLST      61              1.0000000000
       306        62  DCM       C              12.8914811202        2.3389804715        3.1080693357  CLST      62              1.0000000000
       307        62  DCM       H1             13.6361706570        2.8981163822        3.7136775863  CLST      62              1.0000000000
       308        62  DCM       H2             13.1938634552        1.2783992484        2.9815964206  CLST      62              1.0000000000
       309        62  DCM       CL1            11.3109980559        2.3996696857        3.9389302747  CLST      62              1.0000000000
       310        62  DCM       CL2            12.7669443436        3.0989814243        1.4958892653  CLST      62              1.0000000000
       311        63  DCM       C               2.8279737887        3.1283955453       -3.2172297961  CLST      63              1.0000000000
       312        63  DCM       H1              2.4687351623        4.1384335081       -2.9278195414  CLST      63              1.0000000000
       313        63  DCM       H2              3.3927055161        2.6512939272       -2.3888127279  CLST      63              1.0000000000
       314        63  DCM       CL1             1.4156874210        2.1154607892       -3.6277611714  CLST      63              1.0000000000
       315        63  DCM       CL2             3.8936085676        3.2882049938       -4.6404795474  CLST      63              1.0000000000
       316        64  DCM       C              -8.1371624129       -8.4416307030        5.8185795577  CLST      64              1.0000000000
       317        64  DCM       H1             -7.8205089797       -8.1172175697        4.8051586985  CLST      64              1.0000000000
       318        64  DCM       H2             -7.7238766700       -9.4439540944        6.0617350289  CLST      64              1.0000000000
       319        64  DCM       CL1            -7.5400146654       -7.2591960305        7.0177332211  CLST      64              1.0000000000
       320        64  DCM       CL2            -9.9226559221       -8.5175570072        5.8746009364  CLST      64              1.0000000000
       321        65  DCM       C              16.5954028432        0.6716577661        3.7141334584  CLST      65              1.0000000000
       322        65  DCM       H1             16.4527280624       -0.1334325842        2.9616454533  CLST      65              1.0000000000
       323        65  DCM       H2             17.5922420444        0.5964683230        4.1962075155  CLST      65              1.0000000000
       324        65  DCM       CL1            16.4636543732        2.2565818539        2.8975933487  CLST      65              1.0000000000
       325        65  DCM       CL2            15.3305813252        0.5254471337        4.9697962818  CLST      65              1.0000000000
       326        66  DCM       C              10.6960472031       -1.2789653694        4.4564196576  CLST      66              1.0000000000
       327        66  DCM       H1             11.4895145464       -0.7147171602        3.9230613807  CLST      66              1.0000000000
       328        66  DCM       H2             10.8732230821       -2.3738400592        4.3953776570  CLST      66              1.0000000000
       329        66  DCM       CL1            10.6885739867       -0.7878578243        6.1736986851  CLST      66              1.0000000000
       330        66  DCM       CL2             9.1154960181       -0.9029366718        3.7124696579  CLST      66              1.0000000000
       331        67  DCM       C               1.0948202167       -6.0291922365       -8.9399041621  CLST      67              1.0000000000
       332        67  DCM       H1              1.8608254084       -5.8262557019       -9.7193200931  CLST      67              1.0000000000
       333        67  DCM       H2              0.3686641217       -5.1939863710       -8.8651036118  CLST      67              1.0000000000
       334        67  DCM       CL1             0.2091105298       -7.5205974862       -9.3653942195  CLST      67              1.0000000000
       335        67  DCM       CL2             1.9107217767       -6.2304820782       -7.3628063302  CLST      67              1.0000000000
       336        68  DCM       C               7.3677863883        3.1856956616       -3.1988641509  CLST      68              1.0000000000
       337        68  DCM       H1              8.1871445445        3.9307370021       -3.2627612897  CLST      68              1.0000000000
       338        68  DCM       H2              6.7882386734        3.1533216495       -4.1437003763  CLST      68              1.0000000000
       339        68  DCM       CL1             8.0697902440        1.5743983266       -2.8938951935  CLST      68              1.0000000000
       340        68  DCM       CL2             6.2754169954        3.6370685250       -1.8614697657  CLST      68              1.0000000000
       341        69  DCM       C               2.3703056427       -0.6783038016       -6.2150688144  CLST      69              1.0000000000
       342        69  DCM       H1              2.8329712691        0.3006715366       -5.9605657202  CLST      69              1.0000000000
       343        69  DCM       H2              1.6620849383       -0.5746707806       -7.0625934165  CLST      69              1.0000000000
       344        69  DCM       CL1             3.6625202469       -1.8297432392       -6.6656078027  CLST      69              1.0000000000
       345        69  DCM       CL2             1.4831400930       -1.2920527055       -4.7897202843  CLST      69              1.0000000000
       346        70  DCM       C               6.7244008661       -3.8542942391      -12.8266885783  CLST      70              1.0000000000
       347        70  DCM       H1              6.9788679596       -4.8202956245      -13.3143109911  CLST      70              1.0000000000
       348        70  DCM       H2              6.3813185437       -3.1084813151      -13.5731700958  CLST      70              1.0000000000
       349        70  DCM       CL1             5.4191274153       -4.1290053030      -11.6342600150  CLST      70              1.0000000000
       350        70  DCM       CL2             8.1796353384       -3.2203805003      -12.0029274383  CLST      70              1.0000000000
       351        71  DCM       C               6.1468770081        1.4124845860       -7.0058486119  CLST      71              1.0000000000
       352        71  DCM       H1              6.1484179641        1.8041431636       -5.9700281293  CLST      71              1.0000000000
       353        71  DCM       H2              6.0503865791        0.3044421333       -7.0107175701  CLST      71              1.0000000000
       354        71  DCM       CL1             4.7664524554        2.1157108000       -7.8941307764  CLST      71              1.0000000000
       355        71  DCM       CL2             7.6764286333        1.8771117174       -7.8038229024  CLST      71              1.0000000000
       356        72  DCM       C             -11.1379051767        3.0019779475       -8.7415690248  CLST      72              1.0000000000
       357        72  DCM       H1            -12.1401120314        2.5483844144       -8.5845106010  CLST      72              1.0000000000
       358        72  DCM       H2            -10.3339395155        2.3344306787       -8.3679511035  CLST      72              1.0000000000
       359        72  DCM       CL1           -10.8939794035        3.2824140235      -10.4898403509  CLST      72              1.0000000000
       360        72  DCM       CL2           -11.0602816197        4.5561323400       -7.8632246607  CLST      72              1.0000000000
       361        73  DCM       C               4.6945102869        3.7222563130        1.7153717021  CLST      73              1.0000000000
       362        73  DCM       H1              5.4247537700        3.3415233346        0.9743540237  CLST      73              1.0000000000
       363        73  DCM       H2              3.6718181905        3.3581215520        1.4798536791  CLST      73              1.0000000000
       364        73  DCM       CL1             5.1609688460        3.1533077889        3.3438567726  CLST      73              1.0000000000
       365        73  DCM       CL2             4.7052961937        5.5074430157        1.6820445612  CLST      73              1.0000000000
       366        74  DCM       C              -1.6330292290       -6.2802792835       -3.5895569029  CLST      74              1.0000000000
       367        74  DCM       H1             -1.8882731495       -5.2762498221       -3.9901683061  CLST      74              1.0000000000
       368        74  DCM       H2             -1.1825130278       -6.2030309581       -2.5757862177  CLST      74              1.0000000000
       369        74  DCM       CL1            -3.1201572349       -7.2626204126       -3.4903884569  CLST      74              1.0000000000
       370        74  DCM       CL2            -0.4655095491       -7.0700865945       -4.6883244460  CLST      74              1.0000000000
       371        75  DCM       C              -1.8758736465        1.8520400139        4.1579420628  CLST      75              1.0000000000
       372        75  DCM       H1             -1.6595200683        1.3058749131        5.1005879571  CLST      75              1.0000000000
       373        75  DCM       H2             -1.4651127676        2.8826122789        4.1937628792  CLST      75              1.0000000000
       374        75  DCM       CL1            -1.1252094155        0.9787280632        2.7934314587  CLST      75              1.0000000000
       375        75  DCM       CL2            -3.6462429107        1.9360598616        3.9169126719  CLST      75              1.0000000000
       376        76  DCM       C               2.2310107797       -4.8732322561        3.9094040863  CLST      76              1.0000000000
       377        76  DCM       H1              1.4888358747       -4.4809950379        4.6349112989  CLST      76              1.0000000000
       378        76  DCM       H2              1.7590326689       -5.0969263515        2.9297483357  CLST      76              1.0000000000
       379        76  DCM       CL1             2.9313635628       -6.3774722963        4.5620425045  CLST      76              1.0000000000
       380        76  DCM       CL2             3.5129622219       -3.6522250325        3.6664768900  CLST      76              1.0000000000
       381        77  DCM       C               2.7475916573      -13.3019299574       -6.1824156318  CLST      77              1.0000000000
       382        77  DCM       H1              3.4231182672      -12.4535515869       -5.9441903485  CLST      77              1.0000000000
       383        77  DCM       H2              2.3269020980      -13.2031376614       -7.2058602361  CLST      77              1.0000000000
       384        77  DCM       CL1             3.6712109816      -14.8287383954       -6.0789069664  CLST      77              1.0000000000
       385        77  DCM       CL2             1.4044144568      -13.3241524248       -5.0037652198  CLST      77              1.0000000000
       386        78  DCM       C               3.5592184003        6.9115985615        6.6574036518  CLST      78              1.0000000000
       387        78  DCM       H1              4.0460826006        7.7241890106        7.2371365428  CLST      78              1.0000000000
       388        78  DCM       H2              2.7387772029        7.3104393607        6.0254521162  CLST      78              1.0000000000
       389        78  DCM       CL1             4.7786519137        6.1322590552        5.6072910308  CLST      78              1.0000000000
       390        78  DCM       CL2             2.8804149234        5.7090476546        7.7921972800  CLST      78              1.0000000000
       391        79  DCM       C               7.1252347133        5.3514668737       -6.3528281498  CLST      79              1.0000000000
       392        79  DCM       H1              6.4806587470        4.4654571269       -6.5232955653  CLST      79              1.0000000000
       393        79  DCM       H2              7.0967982006        6.0391566777       -7.2268916091  CLST      79              1.0000000000
       394        79  DCM       CL1             6.5425431331        6.2264259071       -4.9088604207  CLST      79              1.0000000000
       395        79  DCM       CL2             8.8099624161        4.8152646752       -6.0891636854  CLST      79              1.0000000000
       396        80  DCM       C             -11.8429396349       -5.2510237508        6.7831582805  CLST      80              1.0000000000
       397        80  DCM       H1            -12.5030839327       -4.3589178028        6.7298121530  CLST      80              1.0000000000
       398        80  DCM       H2            -12.3230165488       -6.1338809214        6.3114325687  CLST      80              1.0000000000
       399        80  DCM       CL1           -10.3186556541       -4.8933761464        5.9243730964  CLST      80              1.0000000000
       400        80  DCM       CL2           -11.5000260724       -5.6233391420        8.4965051239  CLST      80              1.0000000000
       401        81  DCM       C               1.9652578904       -2.2163246537       11.2658666648  CLST      81              1.0000000000
       402        81  DCM       H1              2.3016283784       -2.2567666100       12.3228556820  CLST      81              1.0000000000
       403        81  DCM       H2              0.9166024074       -1.8558457934       11.1946533846  CLST      81              1.0000000000
       404        81  DCM       CL1             3.0290367416       -1.1011662491       10.3601593851  CLST      81              1.0000000000
       405        81  DCM       CL2             2.0641622176       -3.8543443235       10.5566542170  CLST      81              1.0000000000
       406        82  DCM       C               1.3257156883       -9.8370025630       -6.5293392858  CLST      82              1.0000000000
       407        82  DCM       H1              0.6949210210       -8.9477627905       -6.7385579417  CLST      82              1.0000000000
       408        82  DCM       H2              0.7000325379      -10.7403896111       -6.3747228345  CLST      82              1.0000000000
       409        82  DCM       CL1             2.4166390048      -10.1155299401       -7.9166912986  CLST      82              1.0000000000
       410        82  DCM       CL2             2.2873333184       -9.5341027126       -5.0550143135  CLST      82              1.0000000000
       411        83  DCM       C              -7.8043823704        5.0783364922       -9.7950442163  CLST      83              1.0000000000
       412        83  DCM       H1             -8.6623130846        5.5954610761       -9.3161812107  CLST      83              1.0000000000
       413        83  DCM       H2             -8.0392551471        4.8081228999      -10.8460040105  CLST      83              1.0000000000
       414        83  DCM       CL1            -6.3884916872        6.1678187343       -9.7728593175  CLST      83              1.0000000000
       415        83  DCM       CL2            -7.4404039496        3.5890841498       -8.8768082760  CLST      83              1.0000000000
       416        84  DCM       C              -6.9462975260        1.3987802780        9.7009480163  CLST      84              1.0000000000
       417        84  DCM       H1             -7.8811046967        1.2916199383       10.2894817523  CLST      84              1.0000000000
       418        84  DCM       H2             -6.9058786276        0.6528536907        8.8796169224  CLST      84              1.0000000000
       419        84  DCM       CL1            -6.8873842932        3.0403856903        8.9960749486  CLST      84              1.0000000000
       420        84  DCM       CL2            -5.5430712288        1.1466570149       10.7791234474  CLST      84              1.0000000000
       421        85  DCM       C               2.4793812325       -4.7462615511       -4.1127729702  CLST      85              1.0000000000
       422        85  DCM       H1              2.1150714446       -4.2620451746       -5.0444133049  CLST      85              1.0000000000
       423        85  DCM       H2              2.5407946272       -5.8478204231       -4.2363550807  CLST      85              1.0000000000
       424        85  DCM       CL1             4.1026900357       -4.1068003952       -3.7261788496  CLST      85              1.0000000000
       425        85  DCM       CL2             1.3465857300       -4.3677912775       -2.7823522817  CLST      85              1.0000000000
       426        86  DCM       C               0.7440656638       -0.0367266017       -0.5355172472  CLST      86              1.0000000000
       427        86  DCM       H1             -0.1487920112       -0.0710120742        0.1231975615  CLST      86              1.0000000000
       428        86  DCM       H2              0.4513605989        0.1205715754       -1.5948724989  CLST      86              1.0000000000
       429        86  DCM       CL1             1.7928435454        1.3076162232       -0.0080568016  CLST      86              1.0000000000
       430        86  DCM       CL2             1.6271290904       -1.5828101286       -0.3994889896  CLST      86              1.0000000000
       431        87  DCM       C              -4.6553558298        4.2778768895       -6.4685034822  CLST      87              1.0000000000
       432        87  DCM       H1             -4.8186158425        4.4102031930       -7.5592999420  CLST      87              1.0000000000
       433        87  DCM       H2             -5.1853355884        5.0632229062       -5.8897124121  CLST      87              1.0000000000
       434        87  DCM       CL1            -5.2703498070        2.6750229957       -5.9714850440  CLST      87              1.0000000000
       435        87  DCM       CL2            -2.9043334974        4.3879008271       -6.1274486230  CLST      87              1.0000000000
       436        88  DCM       C              -3.4400260861        2.9910231650        7.4670288631  CLST      88              1.0000000000
       437        88  DCM       H1             -2.5415421215        3.0790229968        6.8188739646  CLST      88              1.0000000000
       438        88  DCM       H2             -4.2368341935        3.6920335761        7.1418305785  CLST      88              1.0000000000
       439        88  DCM       CL1            -4.0631081507        1.3179488359        7.3768002790  CLST      88              1.0000000000
       440        88  DCM       CL2            -2.9782247612        3.3755479152        9.1491231105  CLST      88              1.0000000000
       441        89  DCM       C               5.5079548448        7.3253196237       -1.4569671998  CLST      89              1.0000000000
       442        89  DCM       H1              6.0349716470        6.6100869053       -0.7891957560  CLST      89              1.0000000000
       443        89  DCM       H2              6.1953178268        7.7229300789       -2.2329099537  CLST      89              1.0000000000
       444        89  DCM       CL1             4.1475587981        6.4886954465       -2.2575372989  CLST      89              1.0000000000
       445        89  DCM       CL2             4.8811188579        8.6859206933       -0.4839896489  CLST      89              1.0000000000
       446        90  DCM       C              -8.0895936555       10.4477547448       -7.2386423081  CLST      90              1.0000000000
       447        90  DCM       H1             -8.6904940388       11.2486593918       -7.7188726273  CLST      90              1.0000000000
       448        90  DCM       H2             -8.7445848771        9.6824698898       -6.7728371382  CLST      90              1.0000000000
       449        90  DCM       CL1            -7.0541665038       11.1740678483       -5.9758218202  CLST      90              1.0000000000
       450        90  DCM       CL2            -7.0725395986        9.6608820246       -8.4793222128  CLST      90              1.0000000000
       451        91  DCM       C              -1.9756448204        0.4943601202       10.9761134999  CLST      91              1.0000000000
       452        91  DCM       H1             -2.5328616176        0.2852099522       10.0393954001  CLST      91              1.0000000000
       453        91  DCM       H2             -2.4131482452        1.3641439536       11.5122099249  CLST      91              1.0000000000
       454        91  DCM       CL1            -2.0587707604       -0.9442960423       12.0325484258  CLST      91              1.0000000000
       455        91  DCM       CL2            -0.2717249343        0.8599948945       10.5762461224  CLST      91              1.0000000000
       456        92  DCM       C              -0.6930044157      -10.5113038950       -2.6903283990  CLST      92              1.0000000000
       457        92  DCM       H1             -1.7833313640      -10.6927105945       -2.7775449605  CLST      92              1.0000000000
       458        92  DCM       H2             -0.2364887574      -10.3265022936       -3.6862404101  CLST      92              1.0000000000
       459        92  DCM       CL1             0.0810429747      -11.9409043852       -1.9514352279  CLST      92              1.0000000000
       460        92  DCM       CL2            -0.4196129062       -9.0821965374       -1.6586911079  CLST      92              1.0000000000
       461        93  DCM       C               8.6582439256        2.9600808118        1.6973262530  CLST      93              1.0000000000
       462        93  DCM       H1              9.7372859552        2.8084509302        1.4867594790  CLST      93              1.0000000000
       463        93  DCM       H2              8.4600279456        2.9706646084        2.7907554817  CLST      93              1.0000000000
       464        93  DCM       CL1             8.1478425392        4.5223842883        0.9976805652  CLST      93              1.0000000000
       465        93  DCM       CL2             7.7352194382        1.6244399751        0.9521468460  CLST      93              1.0000000000
       466        94  DCM       C              -4.5511074585       11.0978530795        5.2453060380  CLST      94              1.0000000000
       467        94  DCM       H1             -3.5927997839       10.5425234612        5.3059912904  CLST      94              1.0000000000
       468        94  DCM       H2             -5.4148873908       10.4003102106        5.2016914965  CLST      94              1.0000000000
       469        94  DCM       CL1            -4.7141408788       12.1382967693        6.6901947660  CLST      94              1.0000000000
       470        94  DCM       CL2            -4.5437034955       12.1105054047        3.7722139327  CLST      94              1.0000000000
       471        95  DCM       C             -17.2006773877       -5.2928392236       -2.6597123851  CLST      95              1.0000000000
       472        95  DCM       H1            -17.9474346327       -5.1508292875       -3.4692012251  CLST      95              1.0000000000
       473        95  DCM       H2            -17.3320229637       -4.5361390213       -1.8573455846  CLST      95              1.0000000000
       474        95  DCM       CL1           -17.4057161631       -6.9245899766       -1.9582318780  CLST      95              1.0000000000
       475        95  DCM       CL2           -15.5587523626       -5.1316277529       -3.3484432458  CLST      95              1.0000000000
       476        96  DCM       C             -14.0709197230       -1.9144700778       -1.7582817247  CLST      96              1.0000000000
       477        96  DCM       H1            -13.7971706910       -1.1416346830       -2.5065415130  CLST      96              1.0000000000
       478        96  DCM       H2            -13.8187944848       -2.9322298850       -2.1236376046  CLST      96              1.0000000000
       479        96  DCM       CL1           -13.1713439615       -1.6022178237       -0.2453600229  CLST      96              1.0000000000
       480        96  DCM       CL2           -15.8295752398       -1.8261685108       -1.4475135346  CLST      96              1.0000000000
       481        97  DCM       C              -3.2453927237      -13.0925372167       -0.9069823173  CLST      97              1.0000000000
       482        97  DCM       H1             -2.8305433478      -12.0634713640       -0.8720736102  CLST      97              1.0000000000
       483        97  DCM       H2             -2.6973489215      -13.7653657131       -0.2149651075  CLST      97              1.0000000000
       484        97  DCM       CL1            -4.9680097754      -13.0407376035       -0.4294036469  CLST      97              1.0000000000
       485        97  DCM       CL2            -3.0951025654      -13.7210077599       -2.5736855060  CLST      97              1.0000000000
       486        98  DCM       C              -5.4884944530       -9.6826795546       -2.0426304871  CLST      98              1.0000000000
       487        98  DCM       H1             -6.2873166390      -10.3155822854       -1.5990910029  CLST      98              1.0000000000
       488        98  DCM       H2             -5.8920853808       -8.7088474642       -2.3886002354  CLST      98              1.0000000000
       489        98  DCM       CL1            -4.2332505712       -9.3907553025       -0.8057111674  CLST      98              1.0000000000
       490        98  DCM       CL2            -4.7758352839      -10.5452110173       -3.4358430860  CLST      98              1.0000000000
