* CHARMM CGENFF SD/ABNR BEFORE MLPOT (MM ONLY)
*  DATE:     6/28/26      2: 1:27      CREATED BY USER: boittier
*
       460  EXT
         1         1  DCM       C              -2.8527352094       -1.1592513393       -1.9507387730  CLST      1               1.0000000000
         2         1  DCM       H1             -2.4448517180       -1.9338563881       -2.6354584077  CLST      1               1.0000000000
         3         1  DCM       H2             -2.0406858260       -0.5324512930       -1.5293887439  CLST      1               1.0000000000
         4         1  DCM       CL1            -3.9811725261       -0.1109684559       -2.8578511504  CLST      1               1.0000000000
         5         1  DCM       CL2            -3.7191096349       -1.9646705942       -0.6100428032  CLST      1               1.0000000000
         6         2  DCM       C              12.2159588929        7.9833130020       10.4420914249  CLST      2               1.0000000000
         7         2  DCM       H1             12.2182190290        9.0526355644       10.7419443911  CLST      2               1.0000000000
         8         2  DCM       H2             13.1547588570        7.4780850144       10.7531388760  CLST      2               1.0000000000
         9         2  DCM       CL1            10.8300803864        7.1647913953       11.2208777139  CLST      2               1.0000000000
        10         2  DCM       CL2            12.0611039977        7.8785781928        8.6637065645  CLST      2               1.0000000000
        11         3  DCM       C               1.4321447398       -1.3979933444        2.5470559117  CLST      3               1.0000000000
        12         3  DCM       H1              1.4074497635       -1.3162465654        1.4405512280  CLST      3               1.0000000000
        13         3  DCM       H2              0.6632230795       -0.7466320699        3.0131755162  CLST      3               1.0000000000
        14         3  DCM       CL1             1.1170582558       -3.0946701392        3.0107454773  CLST      3               1.0000000000
        15         3  DCM       CL2             3.0485722803       -0.9007754698        3.1260224504  CLST      3               1.0000000000
        16         4  DCM       C               5.9160962962        6.1378039986      -10.4565942683  CLST      4               1.0000000000
        17         4  DCM       H1              5.9278090440        6.1097941364      -11.5677917767  CLST      4               1.0000000000
        18         4  DCM       H2              5.5618671452        5.1734936215      -10.0376111987  CLST      4               1.0000000000
        19         4  DCM       CL1             7.5741189316        6.4572647303       -9.8689322121  CLST      4               1.0000000000
        20         4  DCM       CL2             4.8185234772        7.4423534555       -9.9167672745  CLST      4               1.0000000000
        21         5  DCM       C               2.6082743338        4.0701142809       -1.1644758781  CLST      5               1.0000000000
        22         5  DCM       H1              3.0497803198        3.6600351465       -2.0977202303  CLST      5               1.0000000000
        23         5  DCM       H2              1.8590038094        3.3713212562       -0.7367707319  CLST      5               1.0000000000
        24         5  DCM       CL1             1.8022849049        5.6222829139       -1.5351541428  CLST      5               1.0000000000
        25         5  DCM       CL2             3.9105180654        4.3280749266        0.0339489297  CLST      5               1.0000000000
        26         6  DCM       C               6.9142981248       -4.3130766941       -2.5424761794  CLST      6               1.0000000000
        27         6  DCM       H1              6.1987430744       -4.9324754615       -3.1245758066  CLST      6               1.0000000000
        28         6  DCM       H2              6.9062643323       -4.5951854794       -1.4687683339  CLST      6               1.0000000000
        29         6  DCM       CL1             8.5601754923       -4.5582766340       -3.1923893075  CLST      6               1.0000000000
        30         6  DCM       CL2             6.4499066858       -2.5950431919       -2.7028453429  CLST      6               1.0000000000
        31         7  DCM       C               3.9799363429       -4.6267420117       -0.1623512305  CLST      7               1.0000000000
        32         7  DCM       H1              4.3330838113       -4.7785582016       -1.2032479250  CLST      7               1.0000000000
        33         7  DCM       H2              3.0043853844       -5.1288573325       -0.0007191353  CLST      7               1.0000000000
        34         7  DCM       CL1             5.1797334538       -5.3010951330        0.9759670418  CLST      7               1.0000000000
        35         7  DCM       CL2             3.7799238470       -2.8808724122        0.1366676377  CLST      7               1.0000000000
        36         8  DCM       C              -4.0504542531        7.1928492952       -3.2727565167  CLST      8               1.0000000000
        37         8  DCM       H1             -3.0037817083        7.2367616202       -2.9048353702  CLST      8               1.0000000000
        38         8  DCM       H2             -4.1867530058        7.8342891142       -4.1689801383  CLST      8               1.0000000000
        39         8  DCM       CL1            -5.1415988504        7.7592269668       -1.9781348246  CLST      8               1.0000000000
        40         8  DCM       CL2            -4.4449003371        5.5032306451       -3.6988030128  CLST      8               1.0000000000
        41         9  DCM       C              -3.1623608530       -6.2965774027       -3.6132388132  CLST      9               1.0000000000
        42         9  DCM       H1             -3.0188765357       -7.3196440474       -3.1999092104  CLST      9               1.0000000000
        43         9  DCM       H2             -3.9611542225       -6.2886053502       -4.3825851183  CLST      9               1.0000000000
        44         9  DCM       CL1            -3.6169091531       -5.1938256856       -2.2859306715  CLST      9               1.0000000000
        45         9  DCM       CL2            -1.6337457773       -5.7447587888       -4.3511380570  CLST      9               1.0000000000
        46        10  DCM       C               9.7859838178       -1.3319361719       -1.8965455133  CLST      10              1.0000000000
        47        10  DCM       H1              9.5686674603       -1.6640687785       -2.9324686841  CLST      10              1.0000000000
        48        10  DCM       H2              9.6821073779       -2.1765334103       -1.1827468117  CLST      10              1.0000000000
        49        10  DCM       CL1            11.4561744872       -0.7008913526       -1.8200447153  CLST      10              1.0000000000
        50        10  DCM       CL2             8.6341574874       -0.0400151407       -1.4556528102  CLST      10              1.0000000000
        51        11  DCM       C              -2.5268283094       -3.4356983769       -6.9775472562  CLST      11              1.0000000000
        52        11  DCM       H1             -2.4040369694       -2.8368686900       -7.9030913510  CLST      11              1.0000000000
        53        11  DCM       H2             -1.6089108316       -4.0176676241       -6.7545270304  CLST      11              1.0000000000
        54        11  DCM       CL1            -3.8927602856       -4.5668104196       -7.1895131250  CLST      11              1.0000000000
        55        11  DCM       CL2            -2.8632569066       -2.3347517203       -5.6121709334  CLST      11              1.0000000000
        56        12  DCM       C              -3.9452603859      -10.6652344822      -11.7600360311  CLST      12              1.0000000000
        57        12  DCM       H1             -4.2523859450      -10.0578106801      -10.8827163067  CLST      12              1.0000000000
        58        12  DCM       H2             -2.8480749725      -10.8381576754      -11.7577746338  CLST      12              1.0000000000
        59        12  DCM       CL1            -4.7871088086      -12.2412202334      -11.7005253134  CLST      12              1.0000000000
        60        12  DCM       CL2            -4.3948910503       -9.7946599022      -13.2552852496  CLST      12              1.0000000000
        61        13  DCM       C              -7.1478952185       -9.7818874415       -4.1282786959  CLST      13              1.0000000000
        62        13  DCM       H1             -7.7879610386      -10.1161113478       -3.2844390666  CLST      13              1.0000000000
        63        13  DCM       H2             -7.7619324644       -9.3612814638       -4.9519225175  CLST      13              1.0000000000
        64        13  DCM       CL1            -6.0244516218       -8.5223629460       -3.5451577741  CLST      13              1.0000000000
        65        13  DCM       CL2            -6.2242554493      -11.1802772062       -4.7465969144  CLST      13              1.0000000000
        66        14  DCM       C              -3.5021562371       -4.8955204992        3.9203490135  CLST      14              1.0000000000
        67        14  DCM       H1             -4.2837375350       -4.1536381639        4.1793694682  CLST      14              1.0000000000
        68        14  DCM       H2             -2.7919573926       -5.0350625630        4.7620205471  CLST      14              1.0000000000
        69        14  DCM       CL1            -4.2853480079       -6.4603653332        3.5571549847  CLST      14              1.0000000000
        70        14  DCM       CL2            -2.6071993179       -4.3148788023        2.4861173589  CLST      14              1.0000000000
        71        15  DCM       C              -6.4779763060        3.4249932243       -6.5659356538  CLST      15              1.0000000000
        72        15  DCM       H1             -5.7424587835        4.0297003579       -5.9899630049  CLST      15              1.0000000000
        73        15  DCM       H2             -6.2778520633        2.3423354102       -6.4494850934  CLST      15              1.0000000000
        74        15  DCM       CL1            -8.1221144174        3.7788984464       -5.9652270545  CLST      15              1.0000000000
        75        15  DCM       CL2            -6.3616419328        3.8535239722       -8.2975383906  CLST      15              1.0000000000
        76        16  DCM       C               2.3085856834       -7.2269593643        2.2946903227  CLST      16              1.0000000000
        77        16  DCM       H1              2.4354304128       -6.1246824831        2.2431094368  CLST      16              1.0000000000
        78        16  DCM       H2              1.2862095992       -7.4927641514        2.6325855485  CLST      16              1.0000000000
        79        16  DCM       CL1             2.5812153306       -7.9334168635        0.6764006858  CLST      16              1.0000000000
        80        16  DCM       CL2             3.4955727891       -7.8919209960        3.4488039618  CLST      16              1.0000000000
        81        17  DCM       C               8.1141394981       -6.0777232543        7.8489253553  CLST      17              1.0000000000
        82        17  DCM       H1              8.3551395245       -5.0369481505        8.1522232235  CLST      17              1.0000000000
        83        17  DCM       H2              7.6202062141       -6.6300311284        8.6757961761  CLST      17              1.0000000000
        84        17  DCM       CL1             7.0131508984       -6.0354746585        6.4417130596  CLST      17              1.0000000000
        85        17  DCM       CL2             9.6272755812       -6.9207325950        7.4091695918  CLST      17              1.0000000000
        86        18  DCM       C              -5.9524855018       -3.0290420706       -3.8523878999  CLST      18              1.0000000000
        87        18  DCM       H1             -4.8696860438       -3.0297070869       -3.6124701829  CLST      18              1.0000000000
        88        18  DCM       H2             -6.1886102051       -2.2422913299       -4.5962027435  CLST      18              1.0000000000
        89        18  DCM       CL1            -6.4070330796       -4.6158436221       -4.5284935281  CLST      18              1.0000000000
        90        18  DCM       CL2            -6.8776208875       -2.7224279571       -2.3573359037  CLST      18              1.0000000000
        91        19  DCM       C               3.1106919680       -6.5901433250       -9.8368120487  CLST      19              1.0000000000
        92        19  DCM       H1              3.3991628687       -5.8165421334       -9.0933175692  CLST      19              1.0000000000
        93        19  DCM       H2              3.8883373088       -6.6984645673      -10.6214293653  CLST      19              1.0000000000
        94        19  DCM       CL1             1.5687028398       -6.1119811596      -10.6055783284  CLST      19              1.0000000000
        95        19  DCM       CL2             2.9104184757       -8.1545869062       -8.9949435865  CLST      19              1.0000000000
        96        20  DCM       C              -2.8830843207        8.9827476782       -7.4487020417  CLST      20              1.0000000000
        97        20  DCM       H1             -2.9488633894        7.9234063260       -7.1231222196  CLST      20              1.0000000000
        98        20  DCM       H2             -1.8282789151        9.3210416045       -7.4962457351  CLST      20              1.0000000000
        99        20  DCM       CL1            -3.6136549306        9.1325554319       -9.0726516625  CLST      20              1.0000000000
       100        20  DCM       CL2            -3.7703547338       10.0079426317       -6.2835820357  CLST      20              1.0000000000
       101        21  DCM       C              -7.2118418150        9.8510906617       -8.5982218010  CLST      21              1.0000000000
       102        21  DCM       H1             -6.9225008774       10.6981114549       -9.2551854908  CLST      21              1.0000000000
       103        21  DCM       H2             -6.4566136478        9.6927935172       -7.7990644573  CLST      21              1.0000000000
       104        21  DCM       CL1            -8.7912616239       10.2104926380       -7.8426273580  CLST      21              1.0000000000
       105        21  DCM       CL2            -7.3377634677        8.3651631993       -9.5847116370  CLST      21              1.0000000000
       106        22  DCM       C              -7.0186927637       -8.3608966142        5.2882530811  CLST      22              1.0000000000
       107        22  DCM       H1             -6.2558464030       -8.1470900823        6.0668526906  CLST      22              1.0000000000
       108        22  DCM       H2             -6.7206273667       -7.9274235998        4.3096351612  CLST      22              1.0000000000
       109        22  DCM       CL1            -8.5815309478       -7.6502870033        5.7836913412  CLST      22              1.0000000000
       110        22  DCM       CL2            -7.1916789407      -10.1306462734        5.1158264045  CLST      22              1.0000000000
       111        23  DCM       C              -7.6211509991       -9.8008325841      -11.2873498620  CLST      23              1.0000000000
       112        23  DCM       H1             -7.1124945263      -10.3931397124      -10.4972683077  CLST      23              1.0000000000
       113        23  DCM       H2             -7.1835180718      -10.0096851524      -12.2862028449  CLST      23              1.0000000000
       114        23  DCM       CL1            -9.3548506688      -10.2334386875      -11.3172306893  CLST      23              1.0000000000
       115        23  DCM       CL2            -7.4374187249       -8.0607385274      -10.9222399633  CLST      23              1.0000000000
       116        24  DCM       C              -6.4110806558       -4.8049391784        7.1436026659  CLST      24              1.0000000000
       117        24  DCM       H1             -6.2556454235       -3.8261072344        7.6530220577  CLST      24              1.0000000000
       118        24  DCM       H2             -7.2002021607       -5.3966534884        7.6469753929  CLST      24              1.0000000000
       119        24  DCM       CL1            -6.9046866867       -4.5046940442        5.4521352011  CLST      24              1.0000000000
       120        24  DCM       CL2            -4.8829093278       -5.7331291213        7.1761718217  CLST      24              1.0000000000
       121        25  DCM       C              10.4798725863       -0.4455172648        2.0054193718  CLST      25              1.0000000000
       122        25  DCM       H1              9.6580766094       -0.0827507620        1.3521505135  CLST      25              1.0000000000
       123        25  DCM       H2             11.3913664214        0.1755697807        1.8799870921  CLST      25              1.0000000000
       124        25  DCM       CL1             9.9492451949       -0.3606668310        3.7091772294  CLST      25              1.0000000000
       125        25  DCM       CL2            10.8671867610       -2.1368533504        1.5778031038  CLST      25              1.0000000000
       126        26  DCM       C              -5.3936055538        5.7746533501        4.4663738165  CLST      26              1.0000000000
       127        26  DCM       H1             -4.9405155077        6.6355292247        4.9997970614  CLST      26              1.0000000000
       128        26  DCM       H2             -6.2279753097        6.1072306589        3.8137991538  CLST      26              1.0000000000
       129        26  DCM       CL1            -4.1421186563        4.9884704861        3.4618813605  CLST      26              1.0000000000
       130        26  DCM       CL2            -6.0227485481        4.6121425715        5.6686125050  CLST      26              1.0000000000
       131        27  DCM       C               6.7098997752       -1.5730150115        2.0922984685  CLST      27              1.0000000000
       132        27  DCM       H1              5.6904993209       -1.9535671897        2.3007503990  CLST      27              1.0000000000
       133        27  DCM       H2              7.3868030817       -1.7425880782        2.9580991174  CLST      27              1.0000000000
       134        27  DCM       CL1             7.3659369814       -2.4379274943        0.6777177071  CLST      27              1.0000000000
       135        27  DCM       CL2             6.6226004530        0.1773645838        1.7492968011  CLST      27              1.0000000000
       136        28  DCM       C              -9.4575289208       -8.9445578842        2.4166360281  CLST      28              1.0000000000
       137        28  DCM       H1             -8.5294022094       -8.3771134405        2.6344818672  CLST      28              1.0000000000
       138        28  DCM       H2             -9.6787565680       -9.6757615951        3.2253364193  CLST      28              1.0000000000
       139        28  DCM       CL1           -10.8082876877       -7.7866510146        2.2810687111  CLST      28              1.0000000000
       140        28  DCM       CL2            -9.2537124506       -9.8275921097        0.8742833041  CLST      28              1.0000000000
       141        29  DCM       C               4.5820829891        0.5664387992       -1.1094661398  CLST      29              1.0000000000
       142        29  DCM       H1              5.0863149757       -0.3846175954       -0.8334259758  CLST      29              1.0000000000
       143        29  DCM       H2              5.0776020668        1.4330332727       -0.6253787643  CLST      29              1.0000000000
       144        29  DCM       CL1             4.6596631380        0.7661594745       -2.8820031796  CLST      29              1.0000000000
       145        29  DCM       CL2             2.8759078433        0.5053810049       -0.5796377510  CLST      29              1.0000000000
       146        30  DCM       C              -8.5965292652        0.8666223267       -8.4673389692  CLST      30              1.0000000000
       147        30  DCM       H1             -8.1822029367        0.5465282685       -7.4876171243  CLST      30              1.0000000000
       148        30  DCM       H2             -8.8473602832        1.9488991196       -8.4577161446  CLST      30              1.0000000000
       149        30  DCM       CL1            -7.3843286137        0.5576441223       -9.7450060413  CLST      30              1.0000000000
       150        30  DCM       CL2           -10.0804079220       -0.0701637039       -8.8050169428  CLST      30              1.0000000000
       151        31  DCM       C              -3.7690812700        1.2824531439       -8.0361937773  CLST      31              1.0000000000
       152        31  DCM       H1             -4.8530395616        1.1158899310       -8.2036893274  CLST      31              1.0000000000
       153        31  DCM       H2             -3.4433621968        2.2516618758       -8.4702947621  CLST      31              1.0000000000
       154        31  DCM       CL1            -3.4497825192        1.2923383319       -6.2767661489  CLST      31              1.0000000000
       155        31  DCM       CL2            -2.8547775310       -0.0409590700       -8.8146809371  CLST      31              1.0000000000
       156        32  DCM       C               2.5742218977       10.3880765300        3.9677724467  CLST      32              1.0000000000
       157        32  DCM       H1              2.0311815824       11.2186446319        4.4665478371  CLST      32              1.0000000000
       158        32  DCM       H2              3.3283948032       10.7768085831        3.2504984154  CLST      32              1.0000000000
       159        32  DCM       CL1             3.4040626152        9.4057765708        5.2101111953  CLST      32              1.0000000000
       160        32  DCM       CL2             1.3980860247        9.3741888325        3.0821381963  CLST      32              1.0000000000
       161        33  DCM       C              -2.4476048519        4.8785354514        7.1455385465  CLST      33              1.0000000000
       162        33  DCM       H1             -2.9531802346        4.7423173224        6.1666320145  CLST      33              1.0000000000
       163        33  DCM       H2             -2.2425098326        5.9518790764        7.3403282170  CLST      33              1.0000000000
       164        33  DCM       CL1            -3.5015052490        4.2397952919        8.4403736430  CLST      33              1.0000000000
       165        33  DCM       CL2            -0.9018522339        3.9823044412        7.1299772306  CLST      33              1.0000000000
       166        34  DCM       C              -0.6426983925       -4.1799401465       -0.7571162284  CLST      34              1.0000000000
       167        34  DCM       H1             -0.6339201506       -4.6785081233       -1.7489739891  CLST      34              1.0000000000
       168        34  DCM       H2             -1.6802090130       -4.0081048432       -0.4042834935  CLST      34              1.0000000000
       169        34  DCM       CL1             0.1877333133       -5.2233006000        0.4251048984  CLST      34              1.0000000000
       170        34  DCM       CL2             0.2040490041       -2.6123309663       -0.8781862786  CLST      34              1.0000000000
       171        35  DCM       C               4.7234377601       -4.3429568812        8.7545773092  CLST      35              1.0000000000
       172        35  DCM       H1              4.6648439294       -4.7866247186        7.7401285945  CLST      35              1.0000000000
       173        35  DCM       H2              3.7701810129       -3.8419605218        9.0269716124  CLST      35              1.0000000000
       174        35  DCM       CL1             5.0593602308       -5.6458537980        9.9317422852  CLST      35              1.0000000000
       175        35  DCM       CL2             6.0465368129       -3.1402227676        8.7825634649  CLST      35              1.0000000000
       176        36  DCM       C               7.9198328428        4.8160834526       -0.1064458809  CLST      36              1.0000000000
       177        36  DCM       H1              7.0072092212        5.4397661584       -0.0086077965  CLST      36              1.0000000000
       178        36  DCM       H2              8.5291223716        4.8474891155        0.8206576519  CLST      36              1.0000000000
       179        36  DCM       CL1             7.4360833490        3.1248462955       -0.4094421524  CLST      36              1.0000000000
       180        36  DCM       CL2             8.9057495086        5.4275024872       -1.4655692316  CLST      36              1.0000000000
       181        37  DCM       C               1.1579092748       -7.8492924238       -2.7916173290  CLST      37              1.0000000000
       182        37  DCM       H1              1.9079927959       -8.6020020023       -2.4729382704  CLST      37              1.0000000000
       183        37  DCM       H2              0.9069198288       -7.9666670182       -3.8660945013  CLST      37              1.0000000000
       184        37  DCM       CL1             1.8335888148       -6.2194065540       -2.5296689332  CLST      37              1.0000000000
       185        37  DCM       CL2            -0.3250832128       -8.0516204308       -1.8154611506  CLST      37              1.0000000000
       186        38  DCM       C              -7.3168146128        7.3525400179       -5.6339792187  CLST      38              1.0000000000
       187        38  DCM       H1             -8.1951797060        7.4009663485       -6.3118356274  CLST      38              1.0000000000
       188        38  DCM       H2             -7.4355297960        6.5462189654       -4.8803820177  CLST      38              1.0000000000
       189        38  DCM       CL1            -7.1428052531        8.9168748534       -4.7886154015  CLST      38              1.0000000000
       190        38  DCM       CL2            -5.8533642593        7.0244847244       -6.6026603735  CLST      38              1.0000000000
       191        39  DCM       C              -0.6987304705      -10.7711429325        8.0023594154  CLST      39              1.0000000000
       192        39  DCM       H1             -0.7488829491      -11.3622754426        7.0611924557  CLST      39              1.0000000000
       193        39  DCM       H2             -1.2303805514       -9.8018434002        7.8870024781  CLST      39              1.0000000000
       194        39  DCM       CL1            -1.4694120239      -11.7080640997        9.3126261182  CLST      39              1.0000000000
       195        39  DCM       CL2             1.0138789452      -10.4528665176        8.4061772506  CLST      39              1.0000000000
       196        40  DCM       C              -0.0317151613        9.8515317857        6.6426512113  CLST      40              1.0000000000
       197        40  DCM       H1              0.8251189723       10.1660119759        7.2743591754  CLST      40              1.0000000000
       198        40  DCM       H2              0.3077339630        9.2130083934        5.8017208725  CLST      40              1.0000000000
       199        40  DCM       CL1            -1.1844898753        8.9196383816        7.6387165565  CLST      40              1.0000000000
       200        40  DCM       CL2            -0.8328057973       11.3058011773        5.9838133807  CLST      40              1.0000000000
       201        41  DCM       C               5.8126562380        4.6255908028       -3.2562153395  CLST      41              1.0000000000
       202        41  DCM       H1              6.9066209845        4.7622220947       -3.3703291687  CLST      41              1.0000000000
       203        41  DCM       H2              5.5767213236        4.0147234665       -2.3621367695  CLST      41              1.0000000000
       204        41  DCM       CL1             5.0516071383        6.2328346789       -3.0887144227  CLST      41              1.0000000000
       205        41  DCM       CL2             5.1864894359        3.7833786556       -4.6995517559  CLST      41              1.0000000000
       206        42  DCM       C              -4.6494346463        9.3214390213        8.4002794108  CLST      42              1.0000000000
       207        42  DCM       H1             -4.1521027482        9.9585623658        7.6374731910  CLST      42              1.0000000000
       208        42  DCM       H2             -4.0890689789        9.3354462612        9.3582560480  CLST      42              1.0000000000
       209        42  DCM       CL1            -4.7206948168        7.6404798972        7.8001684537  CLST      42              1.0000000000
       210        42  DCM       CL2            -6.3044140049        9.9341734481        8.6846142275  CLST      42              1.0000000000
       211        43  DCM       C              -7.2364398440       -2.7489282028       -7.6621359716  CLST      43              1.0000000000
       212        43  DCM       H1             -6.8908033741       -3.7898111483       -7.4811810815  CLST      43              1.0000000000
       213        43  DCM       H2             -7.6157229579       -2.6261937257       -8.6985122827  CLST      43              1.0000000000
       214        43  DCM       CL1            -8.5532675727       -2.3662152429       -6.5242112243  CLST      43              1.0000000000
       215        43  DCM       CL2            -5.8752380903       -1.6235270678       -7.4068377984  CLST      43              1.0000000000
       216        44  DCM       C               0.5795974895       -7.6683438583        5.8678207774  CLST      44              1.0000000000
       217        44  DCM       H1              0.0670300349       -7.7766123919        6.8471792274  CLST      44              1.0000000000
       218        44  DCM       H2              1.6420213233       -7.3800466896        6.0027550269  CLST      44              1.0000000000
       219        44  DCM       CL1             0.5114329425       -9.2252563736        4.9941861419  CLST      44              1.0000000000
       220        44  DCM       CL2            -0.2459782871       -6.4028465537        4.9148776120  CLST      44              1.0000000000
       221        45  DCM       C              -0.7894159692        6.1236497823       10.1838883167  CLST      45              1.0000000000
       222        45  DCM       H1             -1.0319240614        5.0413149356       10.2257954748  CLST      45              1.0000000000
       223        45  DCM       H2             -0.4464239833        6.4163723794        9.1688643940  CLST      45              1.0000000000
       224        45  DCM       CL1            -2.2532998895        7.0632396506       10.5965369255  CLST      45              1.0000000000
       225        45  DCM       CL2             0.5087970567        6.4783715535       11.3599162304  CLST      45              1.0000000000
       226        46  DCM       C              -5.6793665483       -9.0924291577        0.0344049427  CLST      46              1.0000000000
       227        46  DCM       H1             -5.2696407716       -9.9407276268       -0.5550498011  CLST      46              1.0000000000
       228        46  DCM       H2             -6.6938383989       -8.8124378000       -0.3180093395  CLST      46              1.0000000000
       229        46  DCM       CL1            -5.7642251268       -9.5596907699        1.7565254303  CLST      46              1.0000000000
       230        46  DCM       CL2            -4.5966158996       -7.6861382664       -0.1478813999  CLST      46              1.0000000000
       231        47  DCM       C               1.4285401158       -5.5165034832       -6.0148802543  CLST      47              1.0000000000
       232        47  DCM       H1              0.7228575159       -6.3672595957       -6.1170296852  CLST      47              1.0000000000
       233        47  DCM       H2              1.2302582168       -4.9458318559       -5.0844505480  CLST      47              1.0000000000
       234        47  DCM       CL1             3.0954372107       -6.1556102014       -5.9596786851  CLST      47              1.0000000000
       235        47  DCM       CL2             1.2365659424       -4.4194696734       -7.4119726258  CLST      47              1.0000000000
       236        48  DCM       C               8.4054569115       -1.3697487322       -5.8896831271  CLST      48              1.0000000000
       237        48  DCM       H1              8.3331953052       -2.2610778777       -5.2323204740  CLST      48              1.0000000000
       238        48  DCM       H2              8.3363431606       -1.6556697164       -6.9599241780  CLST      48              1.0000000000
       239        48  DCM       CL1             7.0667114353       -0.2503650600       -5.5006185308  CLST      48              1.0000000000
       240        48  DCM       CL2             9.9738025462       -0.5610597504       -5.6027012674  CLST      48              1.0000000000
       241        49  DCM       C               1.4910046118      -11.5457654074       -1.3036597368  CLST      49              1.0000000000
       242        49  DCM       H1              1.4948051289      -12.5867673396       -0.9180864749  CLST      49              1.0000000000
       243        49  DCM       H2              0.9135140348      -10.8757439702       -0.6339754332  CLST      49              1.0000000000
       244        49  DCM       CL1             0.7398985950      -11.5259500033       -2.9252956663  CLST      49              1.0000000000
       245        49  DCM       CL2             3.1764891485      -10.9565105057       -1.4061677724  CLST      49              1.0000000000
       246        50  DCM       C              -0.5982487356       -8.5395617500       -8.5949166669  CLST      50              1.0000000000
       247        50  DCM       H1             -0.0493347378       -8.4006125188       -9.5492260507  CLST      50              1.0000000000
       248        50  DCM       H2              0.0784402535       -8.9101287757       -7.7966359355  CLST      50              1.0000000000
       249        50  DCM       CL1            -1.2939265133       -6.9731263901       -8.0894313116  CLST      50              1.0000000000
       250        50  DCM       CL2            -1.9049179911       -9.7300668811       -8.8506461861  CLST      50              1.0000000000
       251        51  DCM       C              -8.2428573008        7.8140844771        6.3149201625  CLST      51              1.0000000000
       252        51  DCM       H1             -8.9852988263        8.4923601041        6.7861233131  CLST      51              1.0000000000
       253        51  DCM       H2             -7.5989307680        7.3338708896        7.0829215924  CLST      51              1.0000000000
       254        51  DCM       CL1            -9.1079201341        6.5418066178        5.4042296413  CLST      51              1.0000000000
       255        51  DCM       CL2            -7.2155737585        8.7662611933        5.2047130041  CLST      51              1.0000000000
       256        52  DCM       C               8.4111654040       -8.5480902094        4.0055446411  CLST      52              1.0000000000
       257        52  DCM       H1              8.4117946692       -9.6542883179        3.9108354299  CLST      52              1.0000000000
       258        52  DCM       H2              8.3915960982       -8.2414490034        5.0712924434  CLST      52              1.0000000000
       259        52  DCM       CL1             6.9663738290       -7.8924593876        3.1836518384  CLST      52              1.0000000000
       260        52  DCM       CL2             9.8887965789       -7.8974152059        3.2392089414  CLST      52              1.0000000000
       261        53  DCM       C               5.1151353645       -9.2247311000        8.2308393438  CLST      53              1.0000000000
       262        53  DCM       H1              4.5812929431      -10.1984774968        8.2611397157  CLST      53              1.0000000000
       263        53  DCM       H2              5.2045918092       -8.7854223440        9.2465256407  CLST      53              1.0000000000
       264        53  DCM       CL1             4.2016562680       -8.0959355161        7.1875866696  CLST      53              1.0000000000
       265        53  DCM       CL2             6.7538297849       -9.4819399176        7.5631212685  CLST      53              1.0000000000
       266        54  DCM       C               4.6437124373       -2.8467751788       -6.8389322236  CLST      54              1.0000000000
       267        54  DCM       H1              3.6571664603       -3.1179675802       -6.4107054151  CLST      54              1.0000000000
       268        54  DCM       H2              4.8902039513       -1.7854873801       -6.6258856701  CLST      54              1.0000000000
       269        54  DCM       CL1             5.8962647044       -3.8984306490       -6.1179332945  CLST      54              1.0000000000
       270        54  DCM       CL2             4.5930847089       -3.0920090498       -8.6083149020  CLST      54              1.0000000000
       271        55  DCM       C              -8.7934350411        0.0571320443       -3.8618990538  CLST      55              1.0000000000
       272        55  DCM       H1             -8.9457390691       -1.0430511394       -3.8073469716  CLST      55              1.0000000000
       273        55  DCM       H2             -8.8467586597        0.5169007238       -2.8543915581  CLST      55              1.0000000000
       274        55  DCM       CL1           -10.0633396951        0.7655316445       -4.8993465396  CLST      55              1.0000000000
       275        55  DCM       CL2            -7.1874543488        0.3857458267       -4.5700338842  CLST      55              1.0000000000
       276        56  DCM       C              -6.6889497178        0.0535607592       -0.2026675519  CLST      56              1.0000000000
       277        56  DCM       H1             -6.4389499073        0.2278088994       -1.2700718417  CLST      56              1.0000000000
       278        56  DCM       H2             -6.6086138004       -1.0232773524        0.0523386392  CLST      56              1.0000000000
       279        56  DCM       CL1            -5.5506279470        0.9757145162        0.8203987354  CLST      56              1.0000000000
       280        56  DCM       CL2            -8.3631531341        0.5979451482        0.0999453060  CLST      56              1.0000000000
       281        57  DCM       C               2.7041332180        6.7251053951        8.0227381428  CLST      57              1.0000000000
       282        57  DCM       H1              3.7345241653        6.6918389510        7.6100868133  CLST      57              1.0000000000
       283        57  DCM       H2              2.5334033208        5.8985934662        8.7444479691  CLST      57              1.0000000000
       284        57  DCM       CL1             2.4648064883        8.2868609581        8.8583475321  CLST      57              1.0000000000
       285        57  DCM       CL2             1.5371121593        6.5729735557        6.6780803062  CLST      57              1.0000000000
       286        58  DCM       C               1.1159677864        8.0870531654       -8.6437450077  CLST      58              1.0000000000
       287        58  DCM       H1              2.0979613394        7.5856887271       -8.7612295728  CLST      58              1.0000000000
       288        58  DCM       H2              0.9560608921        8.8462304477       -9.4382139627  CLST      58              1.0000000000
       289        58  DCM       CL1            -0.1784840649        6.8581688679       -8.7490307945  CLST      58              1.0000000000
       290        58  DCM       CL2             1.0607072409        8.8915473355       -7.0473375590  CLST      58              1.0000000000
       291        59  DCM       C              -8.1233451576        3.6074630579       -2.2271179982  CLST      59              1.0000000000
       292        59  DCM       H1             -8.7285650645        3.2096258731       -3.0687987809  CLST      59              1.0000000000
       293        59  DCM       H2             -8.5428326766        3.2897816068       -1.2497796102  CLST      59              1.0000000000
       294        59  DCM       CL1            -6.4526977663        2.9903851071       -2.3663103331  CLST      59              1.0000000000
       295        59  DCM       CL2            -8.1174356931        5.3929665307       -2.3010530065  CLST      59              1.0000000000
       296        60  DCM       C               4.5085891340       -4.2733411287        4.2828109263  CLST      60              1.0000000000
       297        60  DCM       H1              5.2239109637       -5.0953491257        4.0651350617  CLST      60              1.0000000000
       298        60  DCM       H2              4.0742993051       -3.8621238401        3.3469324420  CLST      60              1.0000000000
       299        60  DCM       CL1             3.1875658674       -4.9028693490        5.3071329362  CLST      60              1.0000000000
       300        60  DCM       CL2             5.3664067600       -2.9657190625        5.1446700348  CLST      60              1.0000000000
       301        61  DCM       C              -7.3138023768        8.0121198336        0.8346454505  CLST      61              1.0000000000
       302        61  DCM       H1             -7.5642361585        8.9887927488        0.3723457588  CLST      61              1.0000000000
       303        61  DCM       H2             -7.2254257579        7.2168396735        0.0651548160  CLST      61              1.0000000000
       304        61  DCM       CL1            -5.7564496004        8.1569366819        1.7029595086  CLST      61              1.0000000000
       305        61  DCM       CL2            -8.6067540700        7.5572897036        1.9805493766  CLST      61              1.0000000000
       306        62  DCM       C              -7.8401552748        3.8013900832        2.1502205146  CLST      62              1.0000000000
       307        62  DCM       H1             -7.7948859303        4.3859293654        3.0928310552  CLST      62              1.0000000000
       308        62  DCM       H2             -7.6194748425        2.7290642989        2.3330504285  CLST      62              1.0000000000
       309        62  DCM       CL1            -9.4809284083        3.9514413360        1.4572132504  CLST      62              1.0000000000
       310        62  DCM       CL2            -6.6372567621        4.4530519088        1.0004443623  CLST      62              1.0000000000
       311        63  DCM       C               9.5978306217       -4.2038370807        4.5634259158  CLST      63              1.0000000000
       312        63  DCM       H1             10.4431993743       -3.7204057708        4.0293198850  CLST      63              1.0000000000
       313        63  DCM       H2              9.9218809018       -5.1483383405        5.0479557157  CLST      63              1.0000000000
       314        63  DCM       CL1             8.9823550644       -3.0815558432        5.8122520006  CLST      63              1.0000000000
       315        63  DCM       CL2             8.3025055609       -4.5703285164        3.3886462762  CLST      63              1.0000000000
       316        64  DCM       C               7.5294545786        7.2785768343       -5.8126401924  CLST      64              1.0000000000
       317        64  DCM       H1              8.0235447455        7.9718823181       -6.5243317965  CLST      64              1.0000000000
       318        64  DCM       H2              7.2406878667        7.8000401962       -4.8761150339  CLST      64              1.0000000000
       319        64  DCM       CL1             6.0599890472        6.6121055992       -6.5818920377  CLST      64              1.0000000000
       320        64  DCM       CL2             8.6600993792        5.9527827886       -5.4119433226  CLST      64              1.0000000000
       321        65  DCM       C              -2.4987929103      -10.5944550611       -4.6327333572  CLST      65              1.0000000000
       322        65  DCM       H1             -3.3946170698      -10.5478460132       -5.2875169132  CLST      65              1.0000000000
       323        65  DCM       H2             -2.0031227131      -11.5855024774       -4.7049711312  CLST      65              1.0000000000
       324        65  DCM       CL1            -1.3424346938       -9.3317397156       -5.1404627560  CLST      65              1.0000000000
       325        65  DCM       CL2            -2.9926481642      -10.3184221513       -2.9376671548  CLST      65              1.0000000000
       326        66  DCM       C              -5.7635344869       -7.6290922706       -7.7867703791  CLST      66              1.0000000000
       327        66  DCM       H1             -5.4162610025       -6.8100666623       -8.4488631505  CLST      66              1.0000000000
       328        66  DCM       H2             -6.0645204058       -8.5198375162       -8.3762789093  CLST      66              1.0000000000
       329        66  DCM       CL1            -4.4387656047       -8.0900685979       -6.6819922391  CLST      66              1.0000000000
       330        66  DCM       CL2            -7.1668567523       -7.0549085611       -6.8450287919  CLST      66              1.0000000000
       331        67  DCM       C               5.1241251457      -10.7870986050        4.5454229697  CLST      67              1.0000000000
       332        67  DCM       H1              4.8474515047      -10.7210780433        3.4723723000  CLST      67              1.0000000000
       333        67  DCM       H2              5.4349550028       -9.7943672914        4.9326721044  CLST      67              1.0000000000
       334        67  DCM       CL1             3.7140482271      -11.3587337922        5.4847048595  CLST      67              1.0000000000
       335        67  DCM       CL2             6.4817678061      -11.9344904224        4.7288551150  CLST      67              1.0000000000
       336        68  DCM       C              -9.5647884983       -6.7958704827       -1.3815137869  CLST      68              1.0000000000
       337        68  DCM       H1            -10.2756489482       -5.9808138450       -1.6356605639  CLST      68              1.0000000000
       338        68  DCM       H2             -9.6559700258       -7.0836546657       -0.3139734108  CLST      68              1.0000000000
       339        68  DCM       CL1            -9.9176706089       -8.2191329673       -2.4023989610  CLST      68              1.0000000000
       340        68  DCM       CL2            -7.8973398446       -6.2359033624       -1.6855968016  CLST      68              1.0000000000
       341        69  DCM       C               7.0863287384      -12.5959170510        1.0969936950  CLST      69              1.0000000000
       342        69  DCM       H1              7.4395031324      -13.2227189990        1.9429693249  CLST      69              1.0000000000
       343        69  DCM       H2              7.4200126040      -13.0119744092        0.1228941479  CLST      69              1.0000000000
       344        69  DCM       CL1             7.7480412847      -10.9463945149        1.2816654010  CLST      69              1.0000000000
       345        69  DCM       CL2             5.3002293191      -12.5369948997        1.1238872453  CLST      69              1.0000000000
       346        70  DCM       C              -2.2516355113       -6.5727743179      -11.6443089356  CLST      70              1.0000000000
       347        70  DCM       H1             -2.5549010461       -5.9558932797      -12.5164265011  CLST      70              1.0000000000
       348        70  DCM       H2             -1.6278427876       -5.9849705292      -10.9377868402  CLST      70              1.0000000000
       349        70  DCM       CL1            -3.7188893098       -7.1336759304      -10.7930822828  CLST      70              1.0000000000
       350        70  DCM       CL2            -1.3114213170       -7.9788785275      -12.2219071158  CLST      70              1.0000000000
       351        71  DCM       C               2.0757253455       -1.6292600567       -3.8714797546  CLST      71              1.0000000000
       352        71  DCM       H1              2.5890011889       -1.0191436980       -4.6289501912  CLST      71              1.0000000000
       353        71  DCM       H2              1.9244100659       -1.0560223675       -2.9200750523  CLST      71              1.0000000000
       354        71  DCM       CL1             0.4810910901       -2.1276806237       -4.5041040456  CLST      71              1.0000000000
       355        71  DCM       CL2             3.0666420942       -3.0711547148       -3.5159145388  CLST      71              1.0000000000
       356        72  DCM       C              -0.2111552477       10.3233246475       10.8777459817  CLST      72              1.0000000000
       357        72  DCM       H1             -0.0930812190        9.3100364733       10.4403366628  CLST      72              1.0000000000
       358        72  DCM       H2              0.0816587177       10.3322303190       11.9486547829  CLST      72              1.0000000000
       359        72  DCM       CL1             0.8267109485       11.4668838219        9.9774153229  CLST      72              1.0000000000
       360        72  DCM       CL2            -1.9223074953       10.8215366074       10.7366566408  CLST      72              1.0000000000
       361        73  DCM       C              -6.2430848599       -4.5638217725        1.0980217269  CLST      73              1.0000000000
       362        73  DCM       H1             -5.2243413797       -5.0041948253        1.0578084073  CLST      73              1.0000000000
       363        73  DCM       H2             -6.6033054035       -4.3130548200        0.0791508843  CLST      73              1.0000000000
       364        73  DCM       CL1            -6.1935466632       -3.0714671352        2.0790730994  CLST      73              1.0000000000
       365        73  DCM       CL2            -7.3628259775       -5.7437916665        1.8431735905  CLST      73              1.0000000000
       366        74  DCM       C               7.5844908913        3.1987977868       -7.5593827429  CLST      74              1.0000000000
       367        74  DCM       H1              7.9618000486        4.1675148814       -7.9461930750  CLST      74              1.0000000000
       368        74  DCM       H2              7.5570068380        3.1989523029       -6.4498009726  CLST      74              1.0000000000
       369        74  DCM       CL1             5.9309392275        2.9246190747       -8.1775421010  CLST      74              1.0000000000
       370        74  DCM       CL2             8.6656294807        1.8876133889       -8.1132370961  CLST      74              1.0000000000
       371        75  DCM       C              -5.2394412491       -3.0849375801      -10.9699189048  CLST      75              1.0000000000
       372        75  DCM       H1             -5.3833657483       -2.9346756102      -12.0608354891  CLST      75              1.0000000000
       373        75  DCM       H2             -5.5907533492       -2.2017455005      -10.3954296971  CLST      75              1.0000000000
       374        75  DCM       CL1            -6.1648475787       -4.5259855236      -10.4559364897  CLST      75              1.0000000000
       375        75  DCM       CL2            -3.5000603563       -3.3333153508      -10.6431981521  CLST      75              1.0000000000
       376        76  DCM       C              10.3211841529        2.6499297594       -3.7527898074  CLST      76              1.0000000000
       377        76  DCM       H1             10.7130942921        1.6584708240       -3.4373354686  CLST      76              1.0000000000
       378        76  DCM       H2             10.5723121906        3.4365384488       -3.0166319870  CLST      76              1.0000000000
       379        76  DCM       CL1             8.5475948722        2.5373354200       -3.8922910598  CLST      76              1.0000000000
       380        76  DCM       CL2            11.0282391445        3.0787819077       -5.3371455583  CLST      76              1.0000000000
       381        77  DCM       C              -1.6804337491        4.7503433199       -6.0271505590  CLST      77              1.0000000000
       382        77  DCM       H1             -2.0051665126        4.0476626585       -5.2305016450  CLST      77              1.0000000000
       383        77  DCM       H2             -0.7797382942        4.3705176157       -6.5540398730  CLST      77              1.0000000000
       384        77  DCM       CL1            -3.0025508577        4.9382911564       -7.2134116113  CLST      77              1.0000000000
       385        77  DCM       CL2            -1.2990994163        6.3335676011       -5.2885262815  CLST      77              1.0000000000
       386        78  DCM       C               2.2963213463        5.4722080512       -5.8278914616  CLST      78              1.0000000000
       387        78  DCM       H1              3.1816431759        5.9000102347       -5.3133257409  CLST      78              1.0000000000
       388        78  DCM       H2              1.4982944357        6.2340156452       -5.9379067090  CLST      78              1.0000000000
       389        78  DCM       CL1             1.6646677269        4.0994577621       -4.8705268296  CLST      78              1.0000000000
       390        78  DCM       CL2             2.7840547008        4.9056322947       -7.4515237073  CLST      78              1.0000000000
       391        79  DCM       C               1.3390175502      -12.4914485691        2.9626086390  CLST      79              1.0000000000
       392        79  DCM       H1              0.8534755011      -12.1610552545        3.9053236404  CLST      79              1.0000000000
       393        79  DCM       H2              2.0844390259      -13.2917122276        3.1564171840  CLST      79              1.0000000000
       394        79  DCM       CL1             0.0897300719      -13.1128923845        1.8463446048  CLST      79              1.0000000000
       395        79  DCM       CL2             2.1671658231      -11.0965286429        2.2170867111  CLST      79              1.0000000000
       396        80  DCM       C              12.5057548055        2.9266777955       -0.7158879393  CLST      80              1.0000000000
       397        80  DCM       H1             13.3052355604        2.7335309015        0.0313254508  CLST      80              1.0000000000
       398        80  DCM       H2             12.6514522535        2.3077216185       -1.6259977034  CLST      80              1.0000000000
       399        80  DCM       CL1            10.9238735364        2.5258369778        0.0108868995  CLST      80              1.0000000000
       400        80  DCM       CL2            12.5408946610        4.6547864196       -1.1722871081  CLST      80              1.0000000000
       401        81  DCM       C               6.0890631847       -8.3861109180       -0.6849544614  CLST      81              1.0000000000
       402        81  DCM       H1              5.5346298209       -8.3008543939        0.2739239762  CLST      81              1.0000000000
       403        81  DCM       H2              6.2862151591       -9.4500885647       -0.9354376835  CLST      81              1.0000000000
       404        81  DCM       CL1             5.1184398927       -7.6529676879       -1.9952166047  CLST      81              1.0000000000
       405        81  DCM       CL2             7.6475197342       -7.5232959219       -0.5312837667  CLST      81              1.0000000000
       406        82  DCM       C              10.7319124448        7.0524935516        1.4284322941  CLST      82              1.0000000000
       407        82  DCM       H1             10.8033137460        6.9262882281        0.3267342757  CLST      82              1.0000000000
       408        82  DCM       H2             11.4436013590        7.8255904002        1.7876317879  CLST      82              1.0000000000
       409        82  DCM       CL1             9.0693071269        7.5512689453        1.8565511213  CLST      82              1.0000000000
       410        82  DCM       CL2            11.1187371428        5.4965288742        2.2178684455  CLST      82              1.0000000000
       411        83  DCM       C             -10.1058861719       -5.2531014165       -4.8008353658  CLST      83              1.0000000000
       412        83  DCM       H1             -9.4077179092       -6.0440875131       -4.4554162901  CLST      83              1.0000000000
       413        83  DCM       H2             -9.8486699682       -4.9221947692       -5.8288507318  CLST      83              1.0000000000
       414        83  DCM       CL1           -10.0060985481       -3.8551682551       -3.6915796168  CLST      83              1.0000000000
       415        83  DCM       CL2           -11.7731857198       -5.8953392204       -4.7983680663  CLST      83              1.0000000000
       416        84  DCM       C               7.7784268341        4.2604899263        3.8416877044  CLST      84              1.0000000000
       417        84  DCM       H1              8.3980983220        5.1774081421        3.7457999600  CLST      84              1.0000000000
       418        84  DCM       H2              7.5865122021        4.0158235693        4.9075605056  CLST      84              1.0000000000
       419        84  DCM       CL1             6.2169769093        4.5277020140        3.0148789822  CLST      84              1.0000000000
       420        84  DCM       CL2             8.6428956566        2.8968216304        3.0776201518  CLST      84              1.0000000000
       421        85  DCM       C              -4.6265362316      -12.9420104351       -7.7671105080  CLST      85              1.0000000000
       422        85  DCM       H1             -5.2271247625      -13.2453998479       -6.8828429969  CLST      85              1.0000000000
       423        85  DCM       H2             -4.8031180342      -13.6239706394       -8.6251494198  CLST      85              1.0000000000
       424        85  DCM       CL1            -5.0897030507      -11.2837989489       -8.2406157817  CLST      85              1.0000000000
       425        85  DCM       CL2            -2.8922151948      -12.9831945379       -7.3373307906  CLST      85              1.0000000000
       426        86  DCM       C              -2.3518090328        8.3951226354        3.5907134663  CLST      86              1.0000000000
       427        86  DCM       H1             -1.6410523612        9.1625701666        3.2209674003  CLST      86              1.0000000000
       428        86  DCM       H2             -2.8962191999        7.9142514972        2.7506751588  CLST      86              1.0000000000
       429        86  DCM       CL1            -1.4444382470        7.1412424726        4.4855606921  CLST      86              1.0000000000
       430        86  DCM       CL2            -3.5349828154        9.1788411130        4.6771322073  CLST      86              1.0000000000
       431        87  DCM       C               4.8164480256        7.6197789697        1.7498200487  CLST      87              1.0000000000
       432        87  DCM       H1              5.5032211383        6.8482528663        1.3431259125  CLST      87              1.0000000000
       433        87  DCM       H2              4.2585476916        7.2349378643        2.6298879007  CLST      87              1.0000000000
       434        87  DCM       CL1             5.7742343242        9.0459933803        2.2414174163  CLST      87              1.0000000000
       435        87  DCM       CL2             3.6526390173        8.0841439148        0.4757482597  CLST      87              1.0000000000
       436        88  DCM       C               6.4904107802        0.4831008578        5.5550307437  CLST      88              1.0000000000
       437        88  DCM       H1              7.0334043063       -0.0221265103        4.7289851927  CLST      88              1.0000000000
       438        88  DCM       H2              6.0080377165       -0.2548533124        6.2277521452  CLST      88              1.0000000000
       439        88  DCM       CL1             7.6575447738        1.4566068865        6.4958003467  CLST      88              1.0000000000
       440        88  DCM       CL2             5.2315575762        1.5466746937        4.8626033479  CLST      88              1.0000000000
       441        89  DCM       C              -3.4064298053      -10.1910874632        4.3408281629  CLST      89              1.0000000000
       442        89  DCM       H1             -3.2675020016       -9.6293636855        3.3963806394  CLST      89              1.0000000000
       443        89  DCM       H2             -4.4248151227      -10.6293612150        4.3923180566  CLST      89              1.0000000000
       444        89  DCM       CL1            -2.2078480831      -11.5149995042        4.4213262776  CLST      89              1.0000000000
       445        89  DCM       CL2            -3.1757638582       -9.0790788057        5.7224863152  CLST      89              1.0000000000
       446        90  DCM       C              -9.8317308498       -9.3103232164       -7.8651419532  CLST      90              1.0000000000
       447        90  DCM       H1            -10.6806825487       -9.7899623229       -8.3966242122  CLST      90              1.0000000000
       448        90  DCM       H2             -9.4664770692       -8.4195864782       -8.4191934761  CLST      90              1.0000000000
       449        90  DCM       CL1            -8.4981989019      -10.4897649877       -7.7143011773  CLST      90              1.0000000000
       450        90  DCM       CL2           -10.3721661993       -8.8060602948       -6.2391515289  CLST      90              1.0000000000
       451        91  DCM       C              -0.9302498371       -9.5003762751        1.4663184719  CLST      91              1.0000000000
       452        91  DCM       H1             -0.6638026700      -10.0281161051        2.4039112991  CLST      91              1.0000000000
       453        91  DCM       H2             -0.0413150088       -9.3634498290        0.8183497854  CLST      91              1.0000000000
       454        91  DCM       CL1            -1.5913195515       -7.8939482848        1.8707083954  CLST      91              1.0000000000
       455        91  DCM       CL2            -2.1556552894      -10.4599178119        0.5894475260  CLST      91              1.0000000000
       456        92  DCM       C             -10.6215768145       -3.9751538601       -9.2723994488  CLST      92              1.0000000000
       457        92  DCM       H1            -10.0017704423       -3.0791063214       -9.4860586693  CLST      92              1.0000000000
       458        92  DCM       H2            -11.2463291936       -4.2477924287      -10.1488731778  CLST      92              1.0000000000
       459        92  DCM       CL1            -9.5468368665       -5.3472837692       -8.8743381686  CLST      92              1.0000000000
       460        92  DCM       CL2           -11.6921799749       -3.6209439033       -7.8854888707  CLST      92              1.0000000000
