* INITIAL
*  DATE:     6/28/26      2: 3:25      CREATED BY USER: boittier
*
       475  EXT
         1         1  DCM       C               9.3929818761        3.7446438828        2.7690369347  CLST      1               1.0000000000
         2         1  DCM       H1              9.2869391436        2.6473052404        2.8991307203  CLST      1               1.0000000000
         3         1  DCM       H2              8.4732261972        4.2759167338        3.0894179843  CLST      1               1.0000000000
         4         1  DCM       CL1            10.7670581679        4.3158908535        3.7572096677  CLST      1               1.0000000000
         5         1  DCM       CL2             9.6923381168        4.1027051153        1.0453963556  CLST      1               1.0000000000
         6         2  DCM       C               4.5000372823        2.1186485074        2.5714121433  CLST      2               1.0000000000
         7         2  DCM       H1              4.1437061078        1.0696730803        2.6533474704  CLST      2               1.0000000000
         8         2  DCM       H2              4.2346202026        2.5553280722        1.5860442710  CLST      2               1.0000000000
         9         2  DCM       CL1             3.7428024686        3.0888795252        3.8631837605  CLST      2               1.0000000000
        10         2  DCM       CL2             6.2751711088        2.1528044697        2.7598007743  CLST      2               1.0000000000
        11         3  DCM       C              -4.4169666355       -2.8622379665       -7.6509606126  CLST      3               1.0000000000
        12         3  DCM       H1             -4.7953466456       -3.4922968214       -6.8183162257  CLST      3               1.0000000000
        13         3  DCM       H2             -5.1999976202       -2.7127125259       -8.4233587250  CLST      3               1.0000000000
        14         3  DCM       CL1            -3.9282924931       -1.2700380483       -7.0016771932  CLST      3               1.0000000000
        15         3  DCM       CL2            -3.0096183102       -3.6702395160       -8.3977535150  CLST      3               1.0000000000
        16         4  DCM       C              10.7211206186        0.0868847314       -3.5742095538  CLST      4               1.0000000000
        17         4  DCM       H1             10.3011495202       -0.9408326731       -3.5379264099  CLST      4               1.0000000000
        18         4  DCM       H2             10.1259092365        0.7818367514       -2.9477481491  CLST      4               1.0000000000
        19         4  DCM       CL1            10.6993796169        0.6717904425       -5.2617835783  CLST      4               1.0000000000
        20         4  DCM       CL2            12.4017349433        0.0552717390       -2.9694955806  CLST      4               1.0000000000
        21         5  DCM       C             -11.7397847637       -0.7842364880        8.9371904619  CLST      5               1.0000000000
        22         5  DCM       H1            -10.9200424262       -0.1354834042        8.5591887180  CLST      5               1.0000000000
        23         5  DCM       H2            -11.6339461085       -1.8216653742        8.5545770525  CLST      5               1.0000000000
        24         5  DCM       CL1           -11.6829304359       -0.8113798963       10.7228890464  CLST      5               1.0000000000
        25         5  DCM       CL2           -13.3052355907       -0.1153061581        8.3933613295  CLST      5               1.0000000000
        26         6  DCM       C              11.1080635777        0.7767865826        0.3768699096  CLST      6               1.0000000000
        27         6  DCM       H1             11.5817747850       -0.0845237548       -0.1395923463  CLST      6               1.0000000000
        28         6  DCM       H2             11.0359093987        1.6557034144       -0.2978850376  CLST      6               1.0000000000
        29         6  DCM       CL1             9.4676696823        0.3075304055        0.9047778120  CLST      6               1.0000000000
        30         6  DCM       CL2            12.0983608248        1.2126411183        1.7980869300  CLST      6               1.0000000000
        31         7  DCM       C              -1.7016669486       -2.4226851575       -4.0905448009  CLST      7               1.0000000000
        32         7  DCM       H1             -1.7717643712       -1.5619326759       -4.7873539073  CLST      7               1.0000000000
        33         7  DCM       H2             -0.7610802460       -2.9897067929       -4.2517170907  CLST      7               1.0000000000
        34         7  DCM       CL1            -1.7319670220       -1.8302682676       -2.4078829755  CLST      7               1.0000000000
        35         7  DCM       CL2            -3.0805049497       -3.5181415451       -4.3695505585  CLST      7               1.0000000000
        36         8  DCM       C             -13.5904325899        4.6430882718       -4.2670225643  CLST      8               1.0000000000
        37         8  DCM       H1            -14.1173023167        5.3292007060       -4.9634856475  CLST      8               1.0000000000
        38         8  DCM       H2            -12.6028385812        5.0573454009       -3.9743459755  CLST      8               1.0000000000
        39         8  DCM       CL1           -14.5873694344        4.4214625863       -2.8004328612  CLST      8               1.0000000000
        40         8  DCM       CL2           -13.3446296674        3.0668005655       -5.0709617141  CLST      8               1.0000000000
        41         9  DCM       C              -2.4373489566       12.9635338508        1.0702200030  CLST      9               1.0000000000
        42         9  DCM       H1             -3.2239771526       13.1110588834        1.8398735880  CLST      9               1.0000000000
        43         9  DCM       H2             -1.4281269751       12.9154812097        1.5315714239  CLST      9               1.0000000000
        44         9  DCM       CL1            -2.7538270426       11.4322731870        0.2031668813  CLST      9               1.0000000000
        45         9  DCM       CL2            -2.4846864671       14.3322344474       -0.0785048121  CLST      9               1.0000000000
        46        10  DCM       C               9.8518440640       -0.4908870895       -8.7695032497  CLST      10              1.0000000000
        47        10  DCM       H1              9.3187421117       -0.2274777267       -7.8311444584  CLST      10              1.0000000000
        48        10  DCM       H2              9.2105909762       -0.3036243489       -9.6562435564  CLST      10              1.0000000000
        49        10  DCM       CL1            11.3307012591        0.5043690530       -8.8988139365  CLST      10              1.0000000000
        50        10  DCM       CL2            10.2898059478       -2.2231649964       -8.7250540991  CLST      10              1.0000000000
        51        11  DCM       C               5.8670025645        5.8199161286       -6.5273671796  CLST      11              1.0000000000
        52        11  DCM       H1              5.6487489032        5.3213500698       -5.5610963385  CLST      11              1.0000000000
        53        11  DCM       H2              6.5984362350        5.2320076567       -7.1218431270  CLST      11              1.0000000000
        54        11  DCM       CL1             6.5426885209        7.4417278582       -6.1997271953  CLST      11              1.0000000000
        55        11  DCM       CL2             4.3443268318        5.9721554740       -7.4499581568  CLST      11              1.0000000000
        56        12  DCM       C               3.8984562016        9.8710545899       -4.9580789244  CLST      12              1.0000000000
        57        12  DCM       H1              4.5488221064        9.9102870549       -5.8582553845  CLST      12              1.0000000000
        58        12  DCM       H2              3.4013859723       10.8484441634       -4.7793379828  CLST      12              1.0000000000
        59        12  DCM       CL1             2.6461998367        8.6209189603       -5.2022103182  CLST      12              1.0000000000
        60        12  DCM       CL2             4.8998889789        9.4585327746       -3.5366865403  CLST      12              1.0000000000
        61        13  DCM       C               1.9357176710       -2.3177758487       -1.2886362956  CLST      13              1.0000000000
        62        13  DCM       H1              1.3596618278       -3.2040825573       -0.9567359173  CLST      13              1.0000000000
        63        13  DCM       H2              3.0078185722       -2.4139700716       -1.0278119738  CLST      13              1.0000000000
        64        13  DCM       CL1             1.7804010761       -2.1727420484       -3.0614356467  CLST      13              1.0000000000
        65        13  DCM       CL2             1.2710934049       -0.8612545074       -0.4911709229  CLST      13              1.0000000000
        66        14  DCM       C              -7.3434462163       11.2725430588        0.0960816760  CLST      14              1.0000000000
        67        14  DCM       H1             -6.8509248621       10.5392783365       -0.5780200151  CLST      14              1.0000000000
        68        14  DCM       H2             -8.2897715536       11.6472192988       -0.3451758996  CLST      14              1.0000000000
        69        14  DCM       CL1            -7.7085807388       10.4775949987        1.6545159333  CLST      14              1.0000000000
        70        14  DCM       CL2            -6.2417895189       12.6549096149        0.3624944408  CLST      14              1.0000000000
        71        15  DCM       C              -5.2780461929        0.3366820565      -10.0233612664  CLST      15              1.0000000000
        72        15  DCM       H1             -5.4878219461        1.1582794255      -10.7403971098  CLST      15              1.0000000000
        73        15  DCM       H2             -4.4799556287        0.6268799466       -9.3081430999  CLST      15              1.0000000000
        74        15  DCM       CL1            -6.7706648108       -0.0371803029       -9.1138480648  CLST      15              1.0000000000
        75        15  DCM       CL2            -4.7432476551       -1.1067369247      -10.9315485265  CLST      15              1.0000000000
        76        16  DCM       C               4.5864415489       -1.0407880226       -5.1758780233  CLST      16              1.0000000000
        77        16  DCM       H1              5.4212118925       -0.6397974108       -5.7876505070  CLST      16              1.0000000000
        78        16  DCM       H2              3.7634355188       -0.3018482938       -5.0890579204  CLST      16              1.0000000000
        79        16  DCM       CL1             3.9509029571       -2.5188680826       -5.9475658798  CLST      16              1.0000000000
        80        16  DCM       CL2             5.1915440969       -1.4234675637       -3.5393116933  CLST      16              1.0000000000
        81        17  DCM       C               7.1510428361        2.5313695999       -0.9733707011  CLST      17              1.0000000000
        82        17  DCM       H1              7.8303258123        3.3462280118       -1.2987153444  CLST      17              1.0000000000
        83        17  DCM       H2              7.3073737941        2.2933322218        0.0983460008  CLST      17              1.0000000000
        84        17  DCM       CL1             5.4598474475        3.0548212456       -1.2110434663  CLST      17              1.0000000000
        85        17  DCM       CL2             7.4792746709        1.0687309089       -1.9462369245  CLST      17              1.0000000000
        86        18  DCM       C              -3.2854497776      -10.4579289039        4.1417018424  CLST      18              1.0000000000
        87        18  DCM       H1             -3.9172804357       -9.6595509366        3.7012781278  CLST      18              1.0000000000
        88        18  DCM       H2             -3.3504084493      -10.4510154397        5.2503437207  CLST      18              1.0000000000
        89        18  DCM       CL1            -3.8446775377      -12.0422976865        3.5316630421  CLST      18              1.0000000000
        90        18  DCM       CL2            -1.5871735233      -10.1843182474        3.6559935731  CLST      18              1.0000000000
        91        19  DCM       C             -10.7910527519        4.3741397577       -7.4590689878  CLST      19              1.0000000000
        92        19  DCM       H1            -11.1905651782        3.4237446918       -7.0496570804  CLST      19              1.0000000000
        93        19  DCM       H2            -10.3589774876        4.2236220348       -8.4698307613  CLST      19              1.0000000000
        94        19  DCM       CL1           -12.1193394725        5.5675812078       -7.5642071065  CLST      19              1.0000000000
        95        19  DCM       CL2            -9.5148088399        4.9824151898       -6.3655559586  CLST      19              1.0000000000
        96        20  DCM       C               5.5781596691       -0.8847051078       -9.0069476078  CLST      20              1.0000000000
        97        20  DCM       H1              5.3761213655       -0.8301495915      -10.0974645621  CLST      20              1.0000000000
        98        20  DCM       H2              4.6321553792       -0.9695849922       -8.4317101046  CLST      20              1.0000000000
        99        20  DCM       CL1             6.5953935838       -2.3164449815       -8.6756945605  CLST      20              1.0000000000
       100        20  DCM       CL2             6.4359681930        0.5962907439       -8.4958244659  CLST      20              1.0000000000
       101        21  DCM       C              -4.1071351891       -1.2716703428        0.4343194814  CLST      21              1.0000000000
       102        21  DCM       H1             -3.7905877435       -1.9446270623       -0.3839172343  CLST      21              1.0000000000
       103        21  DCM       H2             -4.2284074679       -1.8359444722        1.3860858167  CLST      21              1.0000000000
       104        21  DCM       CL1            -2.8670661064       -0.0062300459        0.6706821812  CLST      21              1.0000000000
       105        21  DCM       CL2            -5.6715122853       -0.5221037307        0.0047657951  CLST      21              1.0000000000
       106        22  DCM       C              -4.5677228135       -8.2367434324        0.3246811187  CLST      22              1.0000000000
       107        22  DCM       H1             -4.5828728073       -8.4457258975       -0.7655885550  CLST      22              1.0000000000
       108        22  DCM       H2             -5.0320596412       -7.2519682554        0.5487038178  CLST      22              1.0000000000
       109        22  DCM       CL1            -5.4797430546       -9.5176199595        1.1737970308  CLST      22              1.0000000000
       110        22  DCM       CL2            -2.8717269107       -8.2248363833        0.8915872715  CLST      22              1.0000000000
       111        23  DCM       C               4.0286698439       -4.9281278426       -8.8349393195  CLST      23              1.0000000000
       112        23  DCM       H1              3.2951729262       -5.6966940347       -8.5128168934  CLST      23              1.0000000000
       113        23  DCM       H2              4.7153654509       -4.6580188161       -8.0047291562  CLST      23              1.0000000000
       114        23  DCM       CL1             3.1453726270       -3.4660547560       -9.3628360844  CLST      23              1.0000000000
       115        23  DCM       CL2             4.9889693221       -5.5779608979      -10.1942031315  CLST      23              1.0000000000
       116        24  DCM       C             -10.4943419996        8.2044352018       -0.8281747014  CLST      24              1.0000000000
       117        24  DCM       H1            -10.9403666540        7.4936043550       -1.5544234958  CLST      24              1.0000000000
       118        24  DCM       H2            -11.1773303311        8.3794101167        0.0296370632  CLST      24              1.0000000000
       119        24  DCM       CL1            -8.9578741251        7.5230669888       -0.2212715116  CLST      24              1.0000000000
       120        24  DCM       CL2           -10.1852392775        9.7568273710       -1.6561638222  CLST      24              1.0000000000
       121        25  DCM       C              11.4068208881        4.0384356084       -3.9830448319  CLST      25              1.0000000000
       122        25  DCM       H1             12.0281702180        4.9436682209       -3.8165217848  CLST      25              1.0000000000
       123        25  DCM       H2             12.0362831255        3.1664600395       -4.2551416981  CLST      25              1.0000000000
       124        25  DCM       CL1            10.2557588682        4.3566691715       -5.3131504493  CLST      25              1.0000000000
       125        25  DCM       CL2            10.5161212193        3.6542291379       -2.4828951638  CLST      25              1.0000000000
       126        26  DCM       C              -4.3050115356       -9.3156882964      -17.1715887320  CLST      26              1.0000000000
       127        26  DCM       H1             -4.1600131288       -8.3635401853      -17.7245778008  CLST      26              1.0000000000
       128        26  DCM       H2             -4.4090314274      -10.1728482957      -17.8700479284  CLST      26              1.0000000000
       129        26  DCM       CL1            -2.8898007172       -9.5953775261      -16.1150915877  CLST      26              1.0000000000
       130        26  DCM       CL2            -5.7875886777       -9.1913797687      -16.1798928120  CLST      26              1.0000000000
       131        27  DCM       C              -4.6164425239       13.3898375588       -2.9907929693  CLST      27              1.0000000000
       132        27  DCM       H1             -4.6855404750       13.7472907182       -1.9419659024  CLST      27              1.0000000000
       133        27  DCM       H2             -5.4649649372       13.7739945799       -3.5976684408  CLST      27              1.0000000000
       134        27  DCM       CL1            -3.0826720447       13.9646726947       -3.7046424002  CLST      27              1.0000000000
       135        27  DCM       CL2            -4.6559807844       11.6041662443       -2.9983117393  CLST      27              1.0000000000
       136        28  DCM       C              -9.3753009208       -3.1518943480       -3.0539078430  CLST      28              1.0000000000
       137        28  DCM       H1             -8.6469465890       -3.6588766524       -3.7205525080  CLST      28              1.0000000000
       138        28  DCM       H2             -9.5901920610       -3.7686919674       -2.1557082189  CLST      28              1.0000000000
       139        28  DCM       CL1            -8.6920841174       -1.5829619401       -2.5331726223  CLST      28              1.0000000000
       140        28  DCM       CL2           -10.8937729934       -2.8871683726       -3.9590741314  CLST      28              1.0000000000
       141        29  DCM       C             -10.8460811883        3.8448795210       -1.6880073999  CLST      29              1.0000000000
       142        29  DCM       H1            -10.1611119724        3.1572980994       -1.1487347664  CLST      29              1.0000000000
       143        29  DCM       H2            -11.5511993216        3.2803343654       -2.3331413467  CLST      29              1.0000000000
       144        29  DCM       CL1           -11.7822348472        4.7940818055       -0.4977528721  CLST      29              1.0000000000
       145        29  DCM       CL2            -9.8792052276        4.9423822740       -2.7137768335  CLST      29              1.0000000000
       146        30  DCM       C               5.8049908020        6.2809866292        2.8756397238  CLST      30              1.0000000000
       147        30  DCM       H1              5.4168214044        5.5698496423        3.6361289013  CLST      30              1.0000000000
       148        30  DCM       H2              5.0677594563        7.0863164854        2.6705559854  CLST      30              1.0000000000
       149        30  DCM       CL1             7.3162510248        7.0160777772        3.4814524492  CLST      30              1.0000000000
       150        30  DCM       CL2             6.1302611670        5.3917462226        1.3619729680  CLST      30              1.0000000000
       151        31  DCM       C              -7.8024219202        1.0074810972        8.2358390186  CLST      31              1.0000000000
       152        31  DCM       H1             -6.7319488033        1.3000823789        8.2612043816  CLST      31              1.0000000000
       153        31  DCM       H2             -8.4521162741        1.9053544185        8.1745672883  CLST      31              1.0000000000
       154        31  DCM       CL1            -8.0998177212       -0.0250663406        6.8078892433  CLST      31              1.0000000000
       155        31  DCM       CL2            -8.1964416971        0.1033592524        9.7251723446  CLST      31              1.0000000000
       156        32  DCM       C              -2.4078923413        2.6814769271        8.0567118219  CLST      32              1.0000000000
       157        32  DCM       H1             -2.5598777814        2.1166363395        7.1126924505  CLST      32              1.0000000000
       158        32  DCM       H2             -1.8578117574        3.6271824956        7.8681024052  CLST      32              1.0000000000
       159        32  DCM       CL1            -4.0002752758        3.0735253020        8.7688044445  CLST      32              1.0000000000
       160        32  DCM       CL2            -1.4639121986        1.6712787338        9.1923216315  CLST      32              1.0000000000
       161        33  DCM       C             -14.5993368205       -7.4613588445        8.9286030629  CLST      33              1.0000000000
       162        33  DCM       H1            -13.7584646305       -6.7991335156        8.6324529429  CLST      33              1.0000000000
       163        33  DCM       H2            -14.4249412521       -8.5048545591        8.5909222706  CLST      33              1.0000000000
       164        33  DCM       CL1           -14.7538642215       -7.4448985811       10.7097201090  CLST      33              1.0000000000
       165        33  DCM       CL2           -16.1076172917       -6.8538272484        8.1854699137  CLST      33              1.0000000000
       166        34  DCM       C               0.1048826904       12.2875688807       -2.1420562297  CLST      34              1.0000000000
       167        34  DCM       H1              0.3797825809       11.3659274010       -2.6974286051  CLST      34              1.0000000000
       168        34  DCM       H2             -0.9948856671       12.3543057317       -2.0011410136  CLST      34              1.0000000000
       169        34  DCM       CL1             0.6547706527       13.7133148059       -3.0681922289  CLST      34              1.0000000000
       170        34  DCM       CL2             0.9014230387       12.2638640497       -0.5417847562  CLST      34              1.0000000000
       171        35  DCM       C               8.4751801542       -3.5452004849       -5.5563827778  CLST      35              1.0000000000
       172        35  DCM       H1              9.1201155546       -3.8236657517       -4.6963145720  CLST      35              1.0000000000
       173        35  DCM       H2              8.9674043961       -3.7900147821       -6.5212119762  CLST      35              1.0000000000
       174        35  DCM       CL1             6.9362844642       -4.4453012742       -5.4440538644  CLST      35              1.0000000000
       175        35  DCM       CL2             8.1577895161       -1.7879791318       -5.4961612930  CLST      35              1.0000000000
       176        36  DCM       C               5.9589773912       -1.0081670003        0.9536549377  CLST      36              1.0000000000
       177        36  DCM       H1              6.5250653464       -1.7543193335        0.3608698637  CLST      36              1.0000000000
       178        36  DCM       H2              6.6419163095       -0.2330286047        1.3544303429  CLST      36              1.0000000000
       179        36  DCM       CL1             5.1429991930       -1.8266211625        2.3157030654  CLST      36              1.0000000000
       180        36  DCM       CL2             4.7416708360       -0.2327837453       -0.0960134506  CLST      36              1.0000000000
       181        37  DCM       C              -6.3282303842      -15.8773596244       -2.3247371706  CLST      37              1.0000000000
       182        37  DCM       H1             -5.4967217224      -15.3540977279       -1.8089373790  CLST      37              1.0000000000
       183        37  DCM       H2             -6.8719299120      -15.1871452309       -3.0042800610  CLST      37              1.0000000000
       184        37  DCM       CL1            -7.4638179124      -16.5058167998       -1.0962429124  CLST      37              1.0000000000
       185        37  DCM       CL2            -5.6523056179      -17.2274602906       -3.2805118061  CLST      37              1.0000000000
       186        38  DCM       C               1.0668340503        2.8082307920       12.0134049750  CLST      38              1.0000000000
       187        38  DCM       H1              1.1757093590        2.9466885483       10.9203068642  CLST      38              1.0000000000
       188        38  DCM       H2              0.2973611060        3.4958067219       12.4298586749  CLST      38              1.0000000000
       189        38  DCM       CL1             0.5702203973        1.1212991381       12.3398351978  CLST      38              1.0000000000
       190        38  DCM       CL2             2.6329058069        3.1413281541       12.8102350451  CLST      38              1.0000000000
       191        39  DCM       C              -7.7397686352        7.5710599161       -3.8694055972  CLST      39              1.0000000000
       192        39  DCM       H1             -7.4148686300        6.5178178517       -3.7347001448  CLST      39              1.0000000000
       193        39  DCM       H2             -8.7954111747        7.7058031074       -3.5546107132  CLST      39              1.0000000000
       194        39  DCM       CL1            -6.7046718306        8.6349400216       -2.8752810248  CLST      39              1.0000000000
       195        39  DCM       CL2            -7.5852252327        8.0127058617       -5.5940645767  CLST      39              1.0000000000
       196        40  DCM       C             -14.1733520112       -3.7094724152        9.6497092419  CLST      40              1.0000000000
       197        40  DCM       H1            -14.2890989390       -2.6646066392       10.0085891386  CLST      40              1.0000000000
       198        40  DCM       H2            -15.0203801945       -4.3444466217        9.9882888434  CLST      40              1.0000000000
       199        40  DCM       CL1           -14.1233065971       -3.7100093483        7.8628881952  CLST      40              1.0000000000
       200        40  DCM       CL2           -12.6474072639       -4.3803538704       10.2949224131  CLST      40              1.0000000000
       201        41  DCM       C               3.5848423016        1.0856698249        9.7932419623  CLST      41              1.0000000000
       202        41  DCM       H1              3.1549128475        0.9859352911       10.8112926805  CLST      41              1.0000000000
       203        41  DCM       H2              4.4724613158        0.4304688189        9.6777548966  CLST      41              1.0000000000
       204        41  DCM       CL1             2.3496215398        0.6133830862        8.5928656211  CLST      41              1.0000000000
       205        41  DCM       CL2             4.0782290167        2.7819280345        9.5232860671  CLST      41              1.0000000000
       206        42  DCM       C               1.1052582755       -2.3068401422       10.5005439692  CLST      42              1.0000000000
       207        42  DCM       H1              0.3375769982       -2.9450149196       10.9895639151  CLST      42              1.0000000000
       208        42  DCM       H2              0.6672251757       -1.3378814660       10.1757060477  CLST      42              1.0000000000
       209        42  DCM       CL1             2.4272461473       -1.9928598964       11.6595577646  CLST      42              1.0000000000
       210        42  DCM       CL2             1.7472452537       -3.1640194925        9.0692461039  CLST      42              1.0000000000
       211        43  DCM       C               7.0356176785       -4.4713568912       -1.5019196765  CLST      43              1.0000000000
       212        43  DCM       H1              7.5589286385       -5.0271365629       -0.6954651466  CLST      43              1.0000000000
       213        43  DCM       H2              6.9236283862       -5.1001373698       -2.4109916281  CLST      43              1.0000000000
       214        43  DCM       CL1             7.9820378457       -3.0103674102       -1.9115620626  CLST      43              1.0000000000
       215        43  DCM       CL2             5.4140204825       -4.0031030019       -0.9168036241  CLST      43              1.0000000000
       216        44  DCM       C              -2.6203465558      -14.7870377485       -3.3659025975  CLST      44              1.0000000000
       217        44  DCM       H1             -2.8506438213      -15.7546007624       -3.8603741371  CLST      44              1.0000000000
       218        44  DCM       H2             -1.6553345644      -14.3713808872       -3.7267048318  CLST      44              1.0000000000
       219        44  DCM       CL1            -2.5137315888      -15.0487230052       -1.6017664093  CLST      44              1.0000000000
       220        44  DCM       CL2            -3.9256504393      -13.6209490207       -3.7289705983  CLST      44              1.0000000000
       221        45  DCM       C               6.1374126799        1.5178938008       12.5840435340  CLST      45              1.0000000000
       222        45  DCM       H1              6.7342628724        1.7780649312       13.4843145812  CLST      45              1.0000000000
       223        45  DCM       H2              5.4856444445        2.3629831618       12.2789268340  CLST      45              1.0000000000
       224        45  DCM       CL1             7.2483284189        1.1276425555       11.2402351093  CLST      45              1.0000000000
       225        45  DCM       CL2             5.1173944551        0.0983660520       12.9549357621  CLST      45              1.0000000000
       226        46  DCM       C              -2.4986348770      -11.7769592069        0.0705894967  CLST      46              1.0000000000
       227        46  DCM       H1             -3.0800487817      -12.7205693980        0.0386377254  CLST      46              1.0000000000
       228        46  DCM       H2             -2.8744022742      -11.1096605315        0.8731768592  CLST      46              1.0000000000
       229        46  DCM       CL1            -0.7844434399      -12.1616628193        0.3940183622  CLST      46              1.0000000000
       230        46  DCM       CL2            -2.6489856372      -10.9443528853       -1.5045435882  CLST      46              1.0000000000
       231        47  DCM       C              -8.2222568066       -2.8325092687       -6.9462622235  CLST      47              1.0000000000
       232        47  DCM       H1             -7.9394986490       -2.5856285128       -7.9917038537  CLST      47              1.0000000000
       233        47  DCM       H2             -9.3042310558       -2.6531172630       -6.7720429985  CLST      47              1.0000000000
       234        47  DCM       CL1            -7.8575319086       -4.5537027863       -6.6354072020  CLST      47              1.0000000000
       235        47  DCM       CL2            -7.2761132523       -1.8087303375       -5.8301261798  CLST      47              1.0000000000
       236        48  DCM       C               6.4250312784       -2.6917641803       10.8081610713  CLST      48              1.0000000000
       237        48  DCM       H1              7.1925163385       -1.9032722193       10.9488181589  CLST      48              1.0000000000
       238        48  DCM       H2              5.8030655394       -2.8142272011       11.7203946211  CLST      48              1.0000000000
       239        48  DCM       CL1             5.3660452513       -2.2358278447        9.4431854251  CLST      48              1.0000000000
       240        48  DCM       CL2             7.2426136217       -4.2398895301       10.4461385332  CLST      48              1.0000000000
       241        49  DCM       C              12.7497038455       -6.6630858085        3.4865316008  CLST      49              1.0000000000
       242        49  DCM       H1             11.6450225064       -6.7594309010        3.4639511375  CLST      49              1.0000000000
       243        49  DCM       H2             13.0932408743       -6.2213817746        4.4459639348  CLST      49              1.0000000000
       244        49  DCM       CL1            13.4700937532       -8.2876648679        3.2973133451  CLST      49              1.0000000000
       245        49  DCM       CL2            13.2642019629       -5.6101498443        2.1370178358  CLST      49              1.0000000000
       246        50  DCM       C               1.1168715810       -6.2950099667      -11.0828392329  CLST      50              1.0000000000
       247        50  DCM       H1              0.4883421133       -7.0643585315      -11.5792959136  CLST      50              1.0000000000
       248        50  DCM       H2              2.0225068999       -6.7492040385      -10.6285835912  CLST      50              1.0000000000
       249        50  DCM       CL1             1.6236072839       -5.0867075254      -12.2989004776  CLST      50              1.0000000000
       250        50  DCM       CL2             0.1570648955       -5.5007225531       -9.8007475194  CLST      50              1.0000000000
       251        51  DCM       C               5.6227484263        2.4106673864       -4.7227043415  CLST      51              1.0000000000
       252        51  DCM       H1              5.3963353043        1.5577228035       -4.0498369831  CLST      51              1.0000000000
       253        51  DCM       H2              5.5704777394        3.3704220387       -4.1685921116  CLST      51              1.0000000000
       254        51  DCM       CL1             7.2707865542        2.2061906095       -5.3812775244  CLST      51              1.0000000000
       255        51  DCM       CL2             4.4327584716        2.4416729117       -6.0561109202  CLST      51              1.0000000000
       256        52  DCM       C              -6.6581315030        2.2068711318       -5.9723399928  CLST      52              1.0000000000
       257        52  DCM       H1             -7.4685340308        2.5366738249       -6.6556141057  CLST      52              1.0000000000
       258        52  DCM       H2             -6.8140936165        1.1575847556       -5.6462562218  CLST      52              1.0000000000
       259        52  DCM       CL1            -5.0918093247        2.3247289120       -6.8272724233  CLST      52              1.0000000000
       260        52  DCM       CL2            -6.6456962598        3.2695063101       -4.5338247928  CLST      52              1.0000000000
       261        53  DCM       C              -8.1935532111       11.7161501406       -4.7467220478  CLST      53              1.0000000000
       262        53  DCM       H1             -7.9511838518       12.4317733339       -5.5606386141  CLST      53              1.0000000000
       263        53  DCM       H2             -7.4187617784       10.9243871882       -4.6685111577  CLST      53              1.0000000000
       264        53  DCM       CL1            -8.2780701164       12.6030449893       -3.1973290907  CLST      53              1.0000000000
       265        53  DCM       CL2            -9.7730513898       10.9556163031       -5.0959241770  CLST      53              1.0000000000
       266        54  DCM       C               9.7310347370       -0.1526015080        4.7064670638  CLST      54              1.0000000000
       267        54  DCM       H1             10.2099581230       -0.9281023322        5.3399499847  CLST      54              1.0000000000
       268        54  DCM       H2             10.3563170242        0.0819862422        3.8207027370  CLST      54              1.0000000000
       269        54  DCM       CL1             8.1407452532       -0.7508243698        4.1554439971  CLST      54              1.0000000000
       270        54  DCM       CL2             9.5166057005        1.3327991154        5.6737424755  CLST      54              1.0000000000
       271        55  DCM       C              13.0886408958       -2.0403650280       -6.5049268595  CLST      55              1.0000000000
       272        55  DCM       H1             13.1894008160       -2.6344958172       -7.4383921754  CLST      55              1.0000000000
       273        55  DCM       H2             12.6869934583       -1.0285015204       -6.7202392023  CLST      55              1.0000000000
       274        55  DCM       CL1            11.9709988986       -2.8851065205       -5.3949092536  CLST      55              1.0000000000
       275        55  DCM       CL2            14.6951325927       -1.8795681687       -5.7384647615  CLST      55              1.0000000000
       276        56  DCM       C               9.4459885688       -1.0682632564        8.6545739551  CLST      56              1.0000000000
       277        56  DCM       H1              8.8025811875       -0.3516564992        9.2061331266  CLST      56              1.0000000000
       278        56  DCM       H2             10.2028657832       -0.5362961201        8.0421536034  CLST      56              1.0000000000
       279        56  DCM       CL1            10.2814908125       -2.1236594520        9.8295502042  CLST      56              1.0000000000
       280        56  DCM       CL2             8.4174199516       -2.0564953854        7.5795585050  CLST      56              1.0000000000
       281        57  DCM       C              10.6413040847       -8.1003552716        0.5420065805  CLST      57              1.0000000000
       282        57  DCM       H1             10.4769114231       -8.7939081388       -0.3096475489  CLST      57              1.0000000000
       283        57  DCM       H2             11.7204876764       -8.0263826277        0.7936985113  CLST      57              1.0000000000
       284        57  DCM       CL1            10.0352123488       -6.4795215917        0.0977911793  CLST      57              1.0000000000
       285        57  DCM       CL2             9.7492333455       -8.7081355385        1.9663156627  CLST      57              1.0000000000
       286        58  DCM       C              -4.4399234302       -0.5737421032        9.2806752760  CLST      58              1.0000000000
       287        58  DCM       H1             -4.9687298663        0.2681556497        9.7738403096  CLST      58              1.0000000000
       288        58  DCM       H2             -3.3897090083       -0.6441763701        9.6331168992  CLST      58              1.0000000000
       289        58  DCM       CL1            -5.2862797672       -2.0992857663        9.6673778364  CLST      58              1.0000000000
       290        58  DCM       CL2            -4.4429052656       -0.3084490283        7.5127023046  CLST      58              1.0000000000
       291        59  DCM       C               9.0731659313       -4.5877735078        5.2995024811  CLST      59              1.0000000000
       292        59  DCM       H1              8.3693068778       -3.9191368320        4.7588116839  CLST      59              1.0000000000
       293        59  DCM       H2              8.7607005672       -4.7217905585        6.3570598389  CLST      59              1.0000000000
       294        59  DCM       CL1             9.0939377559       -6.1841536979        4.5015291020  CLST      59              1.0000000000
       295        59  DCM       CL2            10.7121614205       -3.8735511300        5.2610559649  CLST      59              1.0000000000
       296        60  DCM       C              -3.9373068900      -18.0955043126       -0.0374963414  CLST      60              1.0000000000
       297        60  DCM       H1             -3.3805970727      -17.9512640935        0.9122683324  CLST      60              1.0000000000
       298        60  DCM       H2             -4.3678757434      -17.1380138656       -0.3963726416  CLST      60              1.0000000000
       299        60  DCM       CL1            -2.8195912639      -18.7292443284       -1.2806397881  CLST      60              1.0000000000
       300        60  DCM       CL2            -5.2669416259      -19.2585237789        0.2337477404  CLST      60              1.0000000000
       301        61  DCM       C             -11.6846798917        3.3103646457        8.2092376608  CLST      61              1.0000000000
       302        61  DCM       H1            -12.7758193795        3.1107950891        8.2797630079  CLST      61              1.0000000000
       303        61  DCM       H2            -11.4847289700        4.3939875055        8.0618804627  CLST      61              1.0000000000
       304        61  DCM       CL1           -10.8983750597        2.7749622875        9.7219851182  CLST      61              1.0000000000
       305        61  DCM       CL2           -11.0184477166        2.4040699209        6.8204171914  CLST      61              1.0000000000
       306        62  DCM       C              -1.1245234037       -6.7894795689       -2.6285124362  CLST      62              1.0000000000
       307        62  DCM       H1             -1.1213210452       -7.1412791555       -3.6806200915  CLST      62              1.0000000000
       308        62  DCM       H2             -0.7628846919       -7.5825594527       -1.9387340340  CLST      62              1.0000000000
       309        62  DCM       CL1            -0.0579988546       -5.3620177118       -2.4890867153  CLST      62              1.0000000000
       310        62  DCM       CL2            -2.7934278600       -6.3398862112       -2.1756983616  CLST      62              1.0000000000
       311        63  DCM       C             -13.3975506761        0.5387643631       -2.2155321240  CLST      63              1.0000000000
       312        63  DCM       H1            -13.5681920182        1.6192395604       -2.4048432835  CLST      63              1.0000000000
       313        63  DCM       H2            -14.0716301289        0.1618805667       -1.4176871675  CLST      63              1.0000000000
       314        63  DCM       CL1           -13.7131127966       -0.3726341324       -3.7203142160  CLST      63              1.0000000000
       315        63  DCM       CL2           -11.7020889764        0.2974159270       -1.7056644058  CLST      63              1.0000000000
       316        64  DCM       C               1.5723718176        3.5627175349        6.5516003429  CLST      64              1.0000000000
       317        64  DCM       H1              1.6609450936        4.4212254825        5.8501224922  CLST      64              1.0000000000
       318        64  DCM       H2              2.5496608717        3.0533186482        6.6819509491  CLST      64              1.0000000000
       319        64  DCM       CL1             1.0178901090        4.1635111032        8.1392777292  CLST      64              1.0000000000
       320        64  DCM       CL2             0.3966395507        2.3891529667        5.8891624550  CLST      64              1.0000000000
       321        65  DCM       C               4.0172461939       13.5799968976        1.1657547235  CLST      65              1.0000000000
       322        65  DCM       H1              3.6537857351       13.5863255844        0.1184607165  CLST      65              1.0000000000
       323        65  DCM       H2              3.3311109132       14.1452222699        1.8309091259  CLST      65              1.0000000000
       324        65  DCM       CL1             4.1170694054       11.8893227542        1.7383730438  CLST      65              1.0000000000
       325        65  DCM       CL2             5.6355884673       14.3380316591        1.2251198942  CLST      65              1.0000000000
       326        66  DCM       C              -3.8117047864        1.0634768989       -3.1519397651  CLST      66              1.0000000000
       327        66  DCM       H1             -4.3975108420        2.0020792528       -3.0613253451  CLST      66              1.0000000000
       328        66  DCM       H2             -3.3103059030        0.8135067955       -2.1932317492  CLST      66              1.0000000000
       329        66  DCM       CL1            -4.9155834688       -0.2707762782       -3.5935714216  CLST      66              1.0000000000
       330        66  DCM       CL2            -2.5710906843        1.2710193077       -4.4226447292  CLST      66              1.0000000000
       331        67  DCM       C              -1.8177376946       -1.8759399363        4.1475213542  CLST      67              1.0000000000
       332        67  DCM       H1             -2.3526773180       -1.5453184780        5.0631930278  CLST      67              1.0000000000
       333        67  DCM       H2             -2.5247358465       -2.0242011253        3.3042016705  CLST      67              1.0000000000
       334        67  DCM       CL1            -0.6218429828       -0.6299422521        3.6890648361  CLST      67              1.0000000000
       335        67  DCM       CL2            -0.9818552234       -3.4195130984        4.4828442904  CLST      67              1.0000000000
       336        68  DCM       C              14.3908627597        1.7516322566       -5.7932282803  CLST      68              1.0000000000
       337        68  DCM       H1             15.2838367275        1.3714969065       -6.3330966002  CLST      68              1.0000000000
       338        68  DCM       H2             13.7368542201        0.9173146223       -5.4663758231  CLST      68              1.0000000000
       339        68  DCM       CL1            14.9246020854        2.6649213582       -4.3522094851  CLST      68              1.0000000000
       340        68  DCM       CL2            13.4602614411        2.8203816038       -6.8821112519  CLST      68              1.0000000000
       341        69  DCM       C               4.3771356318       18.0136983079        1.6013027640  CLST      69              1.0000000000
       342        69  DCM       H1              5.2358606215       18.5458551552        2.0625662332  CLST      69              1.0000000000
       343        69  DCM       H2              4.7177108900       17.3239449705        0.8002786184  CLST      69              1.0000000000
       344        69  DCM       CL1             3.5349225289       17.0681817538        2.8630508933  CLST      69              1.0000000000
       345        69  DCM       CL2             3.2570880783       19.2165369305        0.8972407923  CLST      69              1.0000000000
       346        70  DCM       C               1.1221793970        4.7559568060       15.7702412020  CLST      70              1.0000000000
       347        70  DCM       H1              0.9446482932        5.2471114806       16.7501159272  CLST      70              1.0000000000
       348        70  DCM       H2              2.1781581478        4.4258933174       15.6730294488  CLST      70              1.0000000000
       349        70  DCM       CL1             0.0541205109        3.3285669813       15.6319321367  CLST      70              1.0000000000
       350        70  DCM       CL2             0.7535408010        5.9171220952       14.4611717993  CLST      70              1.0000000000
       351        71  DCM       C             -12.8132715963        8.7558750163       -4.1324475065  CLST      71              1.0000000000
       352        71  DCM       H1            -13.5394411773        8.8574321496       -4.9665397936  CLST      71              1.0000000000
       353        71  DCM       H2            -12.3997705592        9.7444021154       -3.8400289887  CLST      71              1.0000000000
       354        71  DCM       CL1           -13.6394145926        8.0289352873       -2.7237668081  CLST      71              1.0000000000
       355        71  DCM       CL2           -11.4723714289        7.6981205170       -4.6563614889  CLST      71              1.0000000000
       356        72  DCM       C               0.9766374019        1.3318494871       -3.5101577001  CLST      72              1.0000000000
       357        72  DCM       H1              0.3926365158        0.6582282483       -2.8474460240  CLST      72              1.0000000000
       358        72  DCM       H2              0.5194654850        2.3425298034       -3.5494038252  CLST      72              1.0000000000
       359        72  DCM       CL1             1.0059405625        0.6394440992       -5.1565587549  CLST      72              1.0000000000
       360        72  DCM       CL2             2.6450588665        1.4651811060       -2.8841375554  CLST      72              1.0000000000
       361        73  DCM       C             -10.3480895078        0.3669977909       -5.5274312050  CLST      73              1.0000000000
       362        73  DCM       H1             -9.7661288050       -0.4862389680       -5.1231562741  CLST      73              1.0000000000
       363        73  DCM       H2            -11.4390798514        0.1607475908       -5.4864011733  CLST      73              1.0000000000
       364        73  DCM       CL1            -9.9892722912        1.8136393444       -4.5483189802  CLST      73              1.0000000000
       365        73  DCM       CL2            -9.8690975341        0.6481506723       -7.2253913506  CLST      73              1.0000000000
       366        74  DCM       C              -1.2446896887        0.6271190489       -8.1688873994  CLST      74              1.0000000000
       367        74  DCM       H1             -2.2067694020        1.1795519861       -8.1181609804  CLST      74              1.0000000000
       368        74  DCM       H2             -1.0518805938        0.0809784473       -7.2213869173  CLST      74              1.0000000000
       369        74  DCM       CL1            -1.3167155602       -0.5520365716       -9.5099266071  CLST      74              1.0000000000
       370        74  DCM       CL2             0.0818187773        1.7897395417       -8.4573822944  CLST      74              1.0000000000
       371        75  DCM       C              -5.6765227610       -3.8234528423       -1.9680109172  CLST      75              1.0000000000
       372        75  DCM       H1             -5.9538945329       -2.8057099064       -2.3172200855  CLST      75              1.0000000000
       373        75  DCM       H2             -4.5807256146       -3.8926224747       -1.7850795079  CLST      75              1.0000000000
       374        75  DCM       CL1            -6.5435964746       -4.1778703156       -0.4475310225  CLST      75              1.0000000000
       375        75  DCM       CL2            -6.1338869361       -5.0145792520       -3.2182307517  CLST      75              1.0000000000
       376        76  DCM       C              -1.5639694920       -4.8367964267        1.1220618666  CLST      76              1.0000000000
       377        76  DCM       H1             -1.2394949548       -5.4901933356        0.2865978645  CLST      76              1.0000000000
       378        76  DCM       H2             -1.1919716905       -5.2212961493        2.0952672659  CLST      76              1.0000000000
       379        76  DCM       CL1            -0.9174902074       -3.1961342176        0.8606535515  CLST      76              1.0000000000
       380        76  DCM       CL2            -3.3464555342       -4.7647235563        1.1545257371  CLST      76              1.0000000000
       381        77  DCM       C               5.4442547676        0.9298910926        6.2773343446  CLST      77              1.0000000000
       382        77  DCM       H1              6.0135038172        1.2500691770        5.3816540073  CLST      77              1.0000000000
       383        77  DCM       H2              4.5826282577        1.6014543718        6.4678314116  CLST      77              1.0000000000
       384        77  DCM       CL1             4.8460385514       -0.7331892800        6.0145876041  CLST      77              1.0000000000
       385        77  DCM       CL2             6.5414579514        0.9699315707        7.6851767664  CLST      77              1.0000000000
       386        78  DCM       C               2.9819638667        9.2974166139       -0.3789296980  CLST      78              1.0000000000
       387        78  DCM       H1              2.4887354520        9.4821477781        0.5989946687  CLST      78              1.0000000000
       388        78  DCM       H2              3.3608433100       10.2436317766       -0.8198843114  CLST      78              1.0000000000
       389        78  DCM       CL1             4.3572158557        8.1830955729       -0.1350962017  CLST      78              1.0000000000
       390        78  DCM       CL2             1.7972244965        8.5687749083       -1.5011058697  CLST      78              1.0000000000
       391        79  DCM       C               2.5010569068        5.0928187992       -4.1524573524  CLST      79              1.0000000000
       392        79  DCM       H1              2.4636716903        5.6492625146       -5.1130675645  CLST      79              1.0000000000
       393        79  DCM       H2              2.6714098382        4.0107223539       -4.3272508943  CLST      79              1.0000000000
       394        79  DCM       CL1             3.8344362420        5.7390904188       -3.1542311607  CLST      79              1.0000000000
       395        79  DCM       CL2             0.9461454653        5.3032414062       -3.2991464563  CLST      79              1.0000000000
       396        80  DCM       C              -3.2015691148       -6.5386612693        4.3205596628  CLST      80              1.0000000000
       397        80  DCM       H1             -3.0916065735       -5.4359656067        4.3743123370  CLST      80              1.0000000000
       398        80  DCM       H2             -2.5329029856       -6.9698298106        3.5459937295  CLST      80              1.0000000000
       399        80  DCM       CL1            -2.7801330207       -7.2467575066        5.9064839541  CLST      80              1.0000000000
       400        80  DCM       CL2            -4.8977342052       -6.9262179502        3.9116993720  CLST      80              1.0000000000
       401        81  DCM       C              -2.4745005123        1.6845380024      -12.2976832900  CLST      81              1.0000000000
       402        81  DCM       H1             -1.5981584253        2.0640714855      -12.8627650517  CLST      81              1.0000000000
       403        81  DCM       H2             -2.3181181751        0.6371320547      -11.9729488622  CLST      81              1.0000000000
       404        81  DCM       CL1            -2.7268020825        2.7148603306      -10.8557645207  CLST      81              1.0000000000
       405        81  DCM       CL2            -3.9206915341        1.7541795929      -13.3481724474  CLST      81              1.0000000000
       406        82  DCM       C               7.3684672668        6.9753920090       -2.3999322072  CLST      82              1.0000000000
       407        82  DCM       H1              7.6930775450        7.7954314742       -3.0763971116  CLST      82              1.0000000000
       408        82  DCM       H2              6.3205303565        7.1286510692       -2.0626269646  CLST      82              1.0000000000
       409        82  DCM       CL1             7.4725066450        5.4246546526       -3.2752446442  CLST      82              1.0000000000
       410        82  DCM       CL2             8.4390969171        6.9363977209       -0.9716012048  CLST      82              1.0000000000
       411        83  DCM       C              -2.2986859679       -3.8706912022        7.8330933823  CLST      83              1.0000000000
       412        83  DCM       H1             -2.5871657208       -4.1855701524        8.8580184549  CLST      83              1.0000000000
       413        83  DCM       H2             -1.5939320814       -4.5959524303        7.3738625503  CLST      83              1.0000000000
       414        83  DCM       CL1            -1.5100817322       -2.2678030333        7.9163031288  CLST      83              1.0000000000
       415        83  DCM       CL2            -3.7703086917       -3.7745753434        6.8222915054  CLST      83              1.0000000000
       416        84  DCM       C               3.6417797309       -5.4702137781       -3.7650554532  CLST      84              1.0000000000
       417        84  DCM       H1              4.4968532366       -4.7670238601       -3.6797449503  CLST      84              1.0000000000
       418        84  DCM       H2              2.6799644041       -4.9467492157       -3.5882467389  CLST      84              1.0000000000
       419        84  DCM       CL1             3.6292549919       -6.1803209139       -5.4051114239  CLST      84              1.0000000000
       420        84  DCM       CL2             3.8214946902       -6.7679314489       -2.5506108003  CLST      84              1.0000000000
       421        85  DCM       C               0.8550664783       -4.2215671559       -6.3668490242  CLST      85              1.0000000000
       422        85  DCM       H1              1.5859334248       -4.6467588626       -7.0843266103  CLST      85              1.0000000000
       423        85  DCM       H2              1.3217043524       -4.0500686399       -5.3748101906  CLST      85              1.0000000000
       424        85  DCM       CL1             0.2648562955       -2.6608784913       -7.0039515923  CLST      85              1.0000000000
       425        85  DCM       CL2            -0.5031252198       -5.3667220470       -6.1786328611  CLST      85              1.0000000000
       426        86  DCM       C              -6.2933002358      -13.3868744492        0.8274262749  CLST      86              1.0000000000
       427        86  DCM       H1             -7.2914500002      -13.8738071795        0.8170559743  CLST      86              1.0000000000
       428        86  DCM       H2             -6.2339903429      -12.6123089508        1.6212231939  CLST      86              1.0000000000
       429        86  DCM       CL1            -5.0451512983      -14.6302156496        1.1323637190  CLST      86              1.0000000000
       430        86  DCM       CL2            -6.0075153510      -12.6148204086       -0.7594617807  CLST      86              1.0000000000
       431        87  DCM       C              -7.4691680066        3.2390638686       11.5506488118  CLST      87              1.0000000000
       432        87  DCM       H1             -8.3685015276        2.5868799353       11.5523787358  CLST      87              1.0000000000
       433        87  DCM       H2             -7.5091077031        3.9765191840       12.3796437378  CLST      87              1.0000000000
       434        87  DCM       CL1            -6.0121780832        2.2219838816       11.7485181330  CLST      87              1.0000000000
       435        87  DCM       CL2            -7.3898968852        4.1175721944        9.9951149322  CLST      87              1.0000000000
       436        88  DCM       C              10.3397124885       -3.1948009920        1.7996066550  CLST      88              1.0000000000
       437        88  DCM       H1             10.5640013319       -2.2931130216        2.4077277037  CLST      88              1.0000000000
       438        88  DCM       H2             10.7823596003       -4.1052860581        2.2537876409  CLST      88              1.0000000000
       439        88  DCM       CL1             8.5696998103       -3.4086449373        1.7074540992  CLST      88              1.0000000000
       440        88  DCM       CL2            11.0140927256       -2.9764845002        0.1587252351  CLST      88              1.0000000000
       441        89  DCM       C               6.3651482282        4.8439171984        7.1238978567  CLST      89              1.0000000000
       442        89  DCM       H1              6.9173459772        5.7681737260        7.3964454532  CLST      89              1.0000000000
       443        89  DCM       H2              6.3545052008        4.1201189207        7.9664755259  CLST      89              1.0000000000
       444        89  DCM       CL1             4.6835839242        5.2745687420        6.7008238156  CLST      89              1.0000000000
       445        89  DCM       CL2             7.1630404908        4.0855286976        5.7180640460  CLST      89              1.0000000000
       446        90  DCM       C               0.8043642641       16.3605334974       -0.0599151901  CLST      90              1.0000000000
       447        90  DCM       H1              0.7458252056       17.4320987164        0.2282873002  CLST      90              1.0000000000
       448        90  DCM       H2             -0.0116691744       16.0891249040       -0.7629120521  CLST      90              1.0000000000
       449        90  DCM       CL1             2.3769212097       16.0587385842       -0.8537208770  CLST      90              1.0000000000
       450        90  DCM       CL2             0.6634137360       15.3560892428        1.4118625105  CLST      90              1.0000000000
       451        91  DCM       C              -6.0397110732       -1.8144375055        4.4342255107  CLST      91              1.0000000000
       452        91  DCM       H1             -5.9173026988       -1.9482441244        5.5298288724  CLST      91              1.0000000000
       453        91  DCM       H2             -7.1086830677       -1.6701688952        4.1683780428  CLST      91              1.0000000000
       454        91  DCM       CL1            -5.1129205360       -0.3774414639        3.9133195948  CLST      91              1.0000000000
       455        91  DCM       CL2            -5.4239575056       -3.2695711694        3.6010601470  CLST      91              1.0000000000
       456        92  DCM       C               3.8655123766      -16.7795883838        4.0139806513  CLST      92              1.0000000000
       457        92  DCM       H1              3.3732377649      -17.7103685054        4.3671300943  CLST      92              1.0000000000
       458        92  DCM       H2              3.2976375232      -15.8799861215        4.3328342094  CLST      92              1.0000000000
       459        92  DCM       CL1             5.5148701966      -16.6987619853        4.6996683122  CLST      92              1.0000000000
       460        92  DCM       CL2             3.9512583820      -16.8093731376        2.2282670759  CLST      92              1.0000000000
       461        93  DCM       C               2.4529376648        5.0937700876        0.1647435764  CLST      93              1.0000000000
       462        93  DCM       H1              3.5175205326        5.1203783307       -0.1485622902  CLST      93              1.0000000000
       463        93  DCM       H2              1.8288272541        5.7274500935       -0.4992247227  CLST      93              1.0000000000
       464        93  DCM       CL1             1.8617081957        3.4085323233        0.0841326528  CLST      93              1.0000000000
       465        93  DCM       CL2             2.3216494672        5.7078655078        1.8382060731  CLST      93              1.0000000000
       466        94  DCM       C               6.5816618725       -6.6994324596        2.1270778671  CLST      94              1.0000000000
       467        94  DCM       H1              6.7348727135       -7.5847297006        2.7795492191  CLST      94              1.0000000000
       468        94  DCM       H2              7.5460285353       -6.3364055833        1.7156135495  CLST      94              1.0000000000
       469        94  DCM       CL1             5.5047016200       -7.1523729978        0.7753760659  CLST      94              1.0000000000
       470        94  DCM       CL2             5.8363772947       -5.3909894949        3.0897569187  CLST      94              1.0000000000
       471        95  DCM       C               2.5140090217       -4.4095138814        1.7043634398  CLST      95              1.0000000000
       472        95  DCM       H1              1.9915257937       -3.4498473494        1.5072282447  CLST      95              1.0000000000
       473        95  DCM       H2              3.6143857054       -4.2824390346        1.6370334721  CLST      95              1.0000000000
       474        95  DCM       CL1             2.0897307075       -4.9697685042        3.3465116747  CLST      95              1.0000000000
       475        95  DCM       CL2             2.0010174821       -5.6274983573        0.5014063247  CLST      95              1.0000000000
