* INITIAL
*  DATE:     6/28/26      1:58:28      CREATED BY USER: boittier
*
       475  EXT
         1         1  DCM       C             -10.5260368549        6.9946123148        2.2641355667  CLST      1               1.0000000000
         2         1  DCM       H1            -11.4645628648        7.4131604655        2.6837660933  CLST      1               1.0000000000
         3         1  DCM       H2            -10.4972897211        7.1086470462        1.1598812765  CLST      1               1.0000000000
         4         1  DCM       CL1            -9.1377654343        7.8652818102        2.9737419762  CLST      1               1.0000000000
         5         1  DCM       CL2           -10.4228540194        5.2575449326        2.6750963767  CLST      1               1.0000000000
         6         2  DCM       C              11.6170107530       -6.4963418258       -5.8136337315  CLST      2               1.0000000000
         7         2  DCM       H1             12.3421513190       -5.7890594047       -5.3581447861  CLST      2               1.0000000000
         8         2  DCM       H2             12.0605160254       -7.0118758854       -6.6917980363  CLST      2               1.0000000000
         9         2  DCM       CL1            10.1674336057       -5.5935161433       -6.3405858646  CLST      2               1.0000000000
        10         2  DCM       CL2            11.1536425018       -7.7171992901       -4.5947759065  CLST      2               1.0000000000
        11         3  DCM       C              -6.3269774426       10.2223377203        1.9865189479  CLST      3               1.0000000000
        12         3  DCM       H1             -6.7378220237       11.0949238680        1.4360580745  CLST      3               1.0000000000
        13         3  DCM       H2             -6.9750587384        9.9512534751        2.8456164315  CLST      3               1.0000000000
        14         3  DCM       CL1            -6.2289643070        8.8271153120        0.8756159058  CLST      3               1.0000000000
        15         3  DCM       CL2            -4.6974179401       10.6300016756        2.5956777668  CLST      3               1.0000000000
        16         4  DCM       C              -0.5205030006       -3.6461794871        9.1434023984  CLST      4               1.0000000000
        17         4  DCM       H1             -1.0536138290       -3.7044170234       10.1161767624  CLST      4               1.0000000000
        18         4  DCM       H2              0.5124375485       -4.0434374153        9.2288957591  CLST      4               1.0000000000
        19         4  DCM       CL1            -1.4107340289       -4.6100033709        7.9312749104  CLST      4               1.0000000000
        20         4  DCM       CL2            -0.4334632354       -1.9404162222        8.6229609430  CLST      4               1.0000000000
        21         5  DCM       C              -4.5323517438        3.5855622317        7.7277581105  CLST      5               1.0000000000
        22         5  DCM       H1             -4.6830882000        3.1118972723        6.7348031563  CLST      5               1.0000000000
        23         5  DCM       H2             -4.6569368085        4.6876644451        7.6652926166  CLST      5               1.0000000000
        24         5  DCM       CL1            -2.8804491291        3.2151141216        8.3051610347  CLST      5               1.0000000000
        25         5  DCM       CL2            -5.7391480887        2.9257453668        8.8681625464  CLST      5               1.0000000000
        26         6  DCM       C              -0.9041029666        6.1571488390      -11.9657586124  CLST      6               1.0000000000
        27         6  DCM       H1             -1.2293460589        5.3650836203      -11.2588785248  CLST      6               1.0000000000
        28         6  DCM       H2             -0.7996137273        5.7549501382      -12.9954913535  CLST      6               1.0000000000
        29         6  DCM       CL1             0.6742122864        6.8000706928      -11.4294601319  CLST      6               1.0000000000
        30         6  DCM       CL2            -2.1223286614        7.4649549423      -11.9723677553  CLST      6               1.0000000000
        31         7  DCM       C             -12.5204191255       -7.7856560147       -0.9990179900  CLST      7               1.0000000000
        32         7  DCM       H1            -11.5180705059       -7.6342858540       -0.5469374768  CLST      7               1.0000000000
        33         7  DCM       H2            -12.4344906507       -8.1008047146       -2.0604958633  CLST      7               1.0000000000
        34         7  DCM       CL1           -13.3883130130       -9.0508724752       -0.0814678144  CLST      7               1.0000000000
        35         7  DCM       CL2           -13.4296208096       -6.2491793295       -0.9176808287  CLST      7               1.0000000000
        36         8  DCM       C               0.6409035023       -8.7020282663        7.0490334974  CLST      8               1.0000000000
        37         8  DCM       H1              0.5897503399       -7.8146588181        6.3832739486  CLST      8               1.0000000000
        38         8  DCM       H2              0.0975113834       -8.5170863021        7.9994813936  CLST      8               1.0000000000
        39         8  DCM       CL1            -0.1019291194      -10.0950274735        6.2129562012  CLST      8               1.0000000000
        40         8  DCM       CL2             2.3543627536       -9.0586220032        7.4132605248  CLST      8               1.0000000000
        41         9  DCM       C               0.6302050029        2.2239665421       -9.4669458207  CLST      9               1.0000000000
        42         9  DCM       H1              0.1574637507        1.2903844462       -9.8378092793  CLST      9               1.0000000000
        43         9  DCM       H2              1.2910036375        2.6688150695      -10.2403001195  CLST      9               1.0000000000
        44         9  DCM       CL1            -0.6491607994        3.3964214450       -9.0492733871  CLST      9               1.0000000000
        45         9  DCM       CL2             1.6006326866        1.8493985336       -8.0160326443  CLST      9               1.0000000000
        46        10  DCM       C              -1.9358997451        1.1127899146      -12.4730223875  CLST      10              1.0000000000
        47        10  DCM       H1             -2.6944533305        1.0884467576      -13.2836635299  CLST      10              1.0000000000
        48        10  DCM       H2             -1.2701766638        0.2253189386      -12.5212817292  CLST      10              1.0000000000
        49        10  DCM       CL1            -0.9460622306        2.5907734817      -12.6495218579  CLST      10              1.0000000000
        50        10  DCM       CL2            -2.7762845305        1.1275687694      -10.8952142319  CLST      10              1.0000000000
        51        11  DCM       C             -10.7771947881       -3.9430493148        0.5754519611  CLST      11              1.0000000000
        52        11  DCM       H1            -11.3913315695       -4.5396139113        1.2813317415  CLST      11              1.0000000000
        53        11  DCM       H2            -10.0225990849       -3.3349849606        1.1167239129  CLST      11              1.0000000000
        54        11  DCM       CL1            -9.9381572093       -5.0563112839       -0.5406786675  CLST      11              1.0000000000
        55        11  DCM       CL2           -11.8461056522       -2.8502293308       -0.3492163516  CLST      11              1.0000000000
        56        12  DCM       C              -4.6672966066        8.0704002830        5.4101104157  CLST      12              1.0000000000
        57        12  DCM       H1             -4.7037451107        9.1704479466        5.2641743089  CLST      12              1.0000000000
        58        12  DCM       H2             -3.6591302703        7.6715312897        5.1731720085  CLST      12              1.0000000000
        59        12  DCM       CL1            -5.0542238157        7.6934403955        7.1128229053  CLST      12              1.0000000000
        60        12  DCM       CL2            -5.8662122028        7.2977549661        4.3343472831  CLST      12              1.0000000000
        61        13  DCM       C              -3.7474083587       -0.2715299728        7.8623351513  CLST      13              1.0000000000
        62        13  DCM       H1             -2.6579150051       -0.0997093863        7.7389924320  CLST      13              1.0000000000
        63        13  DCM       H2             -4.1727988031        0.4069425740        8.6316580805  CLST      13              1.0000000000
        64        13  DCM       CL1            -4.5654328578        0.0295885883        6.3033145635  CLST      13              1.0000000000
        65        13  DCM       CL2            -4.0215088164       -1.9614397980        8.3704440468  CLST      13              1.0000000000
        66        14  DCM       C               1.8474591162       -6.2203823860        3.2677632143  CLST      14              1.0000000000
        67        14  DCM       H1              2.5505356898       -5.4077814214        3.5491041033  CLST      14              1.0000000000
        68        14  DCM       H2              0.8339758344       -6.0295627565        3.6765917470  CLST      14              1.0000000000
        69        14  DCM       CL1             1.7479675579       -6.3209850977        1.4856056058  CLST      14              1.0000000000
        70        14  DCM       CL2             2.4494221578       -7.7654620769        3.9308305137  CLST      14              1.0000000000
        71        15  DCM       C               5.7957006254      -12.7415034624       -4.9723200585  CLST      15              1.0000000000
        72        15  DCM       H1              5.0548948589      -13.3892417664       -5.4870222225  CLST      15              1.0000000000
        73        15  DCM       H2              6.4865078633      -12.2673222668       -5.7014676386  CLST      15              1.0000000000
        74        15  DCM       CL1             4.9270074948      -11.4618503413       -4.0751916918  CLST      15              1.0000000000
        75        15  DCM       CL2             6.7472955526      -13.7386031432       -3.8343726040  CLST      15              1.0000000000
        76        16  DCM       C              13.4024313837       -7.9592146960       -1.6857642650  CLST      16              1.0000000000
        77        16  DCM       H1             12.7799566524       -7.4649077982       -0.9103103454  CLST      16              1.0000000000
        78        16  DCM       H2             12.7785198518       -8.5819866509       -2.3599199426  CLST      16              1.0000000000
        79        16  DCM       CL1            14.2316305664       -6.7062532769       -2.6537335872  CLST      16              1.0000000000
        80        16  DCM       CL2            14.6069643263       -9.0107856551       -0.8878678978  CLST      16              1.0000000000
        81        17  DCM       C              -1.8587759246        4.3556319435       -5.4431067872  CLST      17              1.0000000000
        82        17  DCM       H1             -2.0399769380        5.1515117033       -6.1931964631  CLST      17              1.0000000000
        83        17  DCM       H2             -2.5128992311        3.4797879054       -5.6348960164  CLST      17              1.0000000000
        84        17  DCM       CL1            -0.1502093097        3.8431934096       -5.5252298077  CLST      17              1.0000000000
        85        17  DCM       CL2            -2.2067966370        5.0076625527       -3.8187364195  CLST      17              1.0000000000
        86        18  DCM       C              -0.3345163693       10.7480660916      -12.4141505852  CLST      18              1.0000000000
        87        18  DCM       H1             -0.3264779832       11.8182378576      -12.7103551210  CLST      18              1.0000000000
        88        18  DCM       H2             -1.3460044506       10.4342964731      -12.0801780171  CLST      18              1.0000000000
        89        18  DCM       CL1             0.8241513314       10.5077034889      -11.0738976614  CLST      18              1.0000000000
        90        18  DCM       CL2             0.1479904312        9.7516543326      -13.8178460451  CLST      18              1.0000000000
        91        19  DCM       C              -6.1239373401        3.5556235196       -3.4014489165  CLST      19              1.0000000000
        92        19  DCM       H1             -5.3397648461        3.2141148797       -4.1098472107  CLST      19              1.0000000000
        93        19  DCM       H2             -6.9590686398        4.0514395577       -3.9399006917  CLST      19              1.0000000000
        94        19  DCM       CL1            -6.7620022337        2.1464713857       -2.5073292926  CLST      19              1.0000000000
        95        19  DCM       CL2            -5.4025464609        4.7220254925       -2.2575273726  CLST      19              1.0000000000
        96        20  DCM       C               5.2213251984       -6.7153795822        6.7589736088  CLST      20              1.0000000000
        97        20  DCM       H1              6.1003828898       -7.3898052704        6.6804549303  CLST      20              1.0000000000
        98        20  DCM       H2              4.3243420183       -7.1734472106        6.2964740549  CLST      20              1.0000000000
        99        20  DCM       CL1             4.8893423585       -6.3903833954        8.4856848607  CLST      20              1.0000000000
       100        20  DCM       CL2             5.5864332072       -5.1835645152        5.9144329048  CLST      20              1.0000000000
       101        21  DCM       C              -4.6453996405        5.2179509990       -9.9461830649  CLST      21              1.0000000000
       102        21  DCM       H1             -4.1630358367        6.2163121941       -9.8837876249  CLST      21              1.0000000000
       103        21  DCM       H2             -5.7521313641        5.3085997566       -9.9355523195  CLST      21              1.0000000000
       104        21  DCM       CL1            -4.1416967471        4.4233747075      -11.4654559106  CLST      21              1.0000000000
       105        21  DCM       CL2            -4.1317652820        4.2308546845       -8.5472853154  CLST      21              1.0000000000
       106        22  DCM       C              -4.9328528219       -3.7123798887        4.8638060399  CLST      22              1.0000000000
       107        22  DCM       H1             -4.5506198861       -2.6987966631        5.1049633276  CLST      22              1.0000000000
       108        22  DCM       H2             -6.0158601206       -3.6825099454        4.6254389277  CLST      22              1.0000000000
       109        22  DCM       CL1            -4.0370186999       -4.3528292026        3.4572273125  CLST      22              1.0000000000
       110        22  DCM       CL2            -4.6751433884       -4.7820863419        6.2692871398  CLST      22              1.0000000000
       111        23  DCM       C               3.1664653775       -2.0083483412       -6.6895861389  CLST      23              1.0000000000
       112        23  DCM       H1              3.6383221227       -2.9731112621       -6.9705015400  CLST      23              1.0000000000
       113        23  DCM       H2              2.9992793397       -1.9511730445       -5.5915462717  CLST      23              1.0000000000
       114        23  DCM       CL1             4.2365742497       -0.6644081216       -7.1788911583  CLST      23              1.0000000000
       115        23  DCM       CL2             1.5924381461       -1.8631830559       -7.5202150391  CLST      23              1.0000000000
       116        24  DCM       C              -5.1050077355        7.4391969558       -6.8001473033  CLST      24              1.0000000000
       117        24  DCM       H1             -5.0320644684        8.4107017468       -6.2700635228  CLST      24              1.0000000000
       118        24  DCM       H2             -4.2590977716        7.3044420259       -7.5046639385  CLST      24              1.0000000000
       119        24  DCM       CL1            -5.0681414393        6.1226254122       -5.5972830631  CLST      24              1.0000000000
       120        24  DCM       CL2            -6.6400130850        7.3819587579       -7.7127975869  CLST      24              1.0000000000
       121        25  DCM       C              -8.3737812944        4.9578226059        5.6425587200  CLST      25              1.0000000000
       122        25  DCM       H1             -8.4800608428        5.8430965793        4.9821045204  CLST      25              1.0000000000
       123        25  DCM       H2             -9.3184662722        4.3756036553        5.6834669456  CLST      25              1.0000000000
       124        25  DCM       CL1            -7.0730864952        3.9135115077        5.0052246397  CLST      25              1.0000000000
       125        25  DCM       CL2            -7.9569516334        5.5125352219        7.2886850566  CLST      25              1.0000000000
       126        26  DCM       C               0.4075225520        5.6011952371        3.9607249339  CLST      26              1.0000000000
       127        26  DCM       H1             -0.4045912903        6.1817624917        4.4465911315  CLST      26              1.0000000000
       128        26  DCM       H2              0.6360060241        4.6799206629        4.5341683345  CLST      26              1.0000000000
       129        26  DCM       CL1             1.8791178833        6.6115002857        3.8733086314  CLST      26              1.0000000000
       130        26  DCM       CL2            -0.1024281333        5.1345945910        2.3142308103  CLST      26              1.0000000000
       131        27  DCM       C               6.6480997632        6.5694990164       10.3270823410  CLST      27              1.0000000000
       132        27  DCM       H1              5.6577295711        6.0874761095       10.1890459297  CLST      27              1.0000000000
       133        27  DCM       H2              6.6340503694        7.2725305408       11.1865164815  CLST      27              1.0000000000
       134        27  DCM       CL1             7.8687866458        5.3002202135       10.6313717152  CLST      27              1.0000000000
       135        27  DCM       CL2             7.0687261623        7.4749182034        8.8440595977  CLST      27              1.0000000000
       136        28  DCM       C              -7.7448389784        8.2856356774       -3.9983575044  CLST      28              1.0000000000
       137        28  DCM       H1             -8.5380686288        8.9799922561       -3.6497706063  CLST      28              1.0000000000
       138        28  DCM       H2             -7.2839465045        8.6467497735       -4.9417495389  CLST      28              1.0000000000
       139        28  DCM       CL1            -6.4811652312        8.1703891645       -2.7413964654  CLST      28              1.0000000000
       140        28  DCM       CL2            -8.4640360568        6.6732619729       -4.2782513096  CLST      28              1.0000000000
       141        29  DCM       C              -3.2194219012        2.9043779996       -0.0612744222  CLST      29              1.0000000000
       142        29  DCM       H1             -4.1596659445        2.9727959216        0.5219423795  CLST      29              1.0000000000
       143        29  DCM       H2             -3.4151687945        2.4945138236       -1.0725153686  CLST      29              1.0000000000
       144        29  DCM       CL1            -2.5141868593        4.5346277135       -0.2326651724  CLST      29              1.0000000000
       145        29  DCM       CL2            -2.0724918978        1.8370331003        0.8008953826  CLST      29              1.0000000000
       146        30  DCM       C              -4.8025405738       -2.4944970647       -3.3773142964  CLST      30              1.0000000000
       147        30  DCM       H1             -5.3887370945       -2.5852368148       -2.4393791171  CLST      30              1.0000000000
       148        30  DCM       H2             -4.9392533492       -3.3880477450       -4.0197492481  CLST      30              1.0000000000
       149        30  DCM       CL1            -5.3560339746       -1.0484506117       -4.2691125573  CLST      30              1.0000000000
       150        30  DCM       CL2            -3.0713965269       -2.3358155462       -2.9694487543  CLST      30              1.0000000000
       151        31  DCM       C              -8.6109308561       -1.8339676792       -2.3931780165  CLST      31              1.0000000000
       152        31  DCM       H1             -8.1470054931       -0.9744297378       -2.9218900712  CLST      31              1.0000000000
       153        31  DCM       H2             -9.7080442232       -1.6966441773       -2.2900868430  CLST      31              1.0000000000
       154        31  DCM       CL1            -8.2997866989       -3.3295466187       -3.3220214068  CLST      31              1.0000000000
       155        31  DCM       CL2            -7.8890290186       -1.9718046469       -0.7645943352  CLST      31              1.0000000000
       156        32  DCM       C               0.7346926332      -11.7905110748        9.4437799221  CLST      32              1.0000000000
       157        32  DCM       H1              1.6998659190      -11.6683206776        8.9094976968  CLST      32              1.0000000000
       158        32  DCM       H2             -0.1065100398      -11.9046339694        8.7260625618  CLST      32              1.0000000000
       159        32  DCM       CL1             0.8200340207      -13.2481896522       10.4747942940  CLST      32              1.0000000000
       160        32  DCM       CL2             0.4420939904      -10.3461567574       10.4560907520  CLST      32              1.0000000000
       161        33  DCM       C              -2.0415813529       -2.1948198455       -9.4699046268  CLST      33              1.0000000000
       162        33  DCM       H1             -2.5856255785       -1.2920679294       -9.1237654067  CLST      33              1.0000000000
       163        33  DCM       H2             -1.7668892507       -2.8454960044       -8.6143965643  CLST      33              1.0000000000
       164        33  DCM       CL1            -3.0949031996       -3.1088869398      -10.5858981673  CLST      33              1.0000000000
       165        33  DCM       CL2            -0.5484051755       -1.6959960822      -10.3142155107  CLST      33              1.0000000000
       166        34  DCM       C              15.2320923090        6.9384498148        2.7974755966  CLST      34              1.0000000000
       167        34  DCM       H1             16.1619020636        6.7944302898        2.2069872732  CLST      34              1.0000000000
       168        34  DCM       H2             15.3044144780        6.4380536701        3.7862236620  CLST      34              1.0000000000
       169        34  DCM       CL1            14.9644791973        8.6880064838        3.0491104385  CLST      34              1.0000000000
       170        34  DCM       CL2            13.8581756008        6.2410980353        1.8934499465  CLST      34              1.0000000000
       171        35  DCM       C              11.5586377612        5.8669720803        9.8125914706  CLST      35              1.0000000000
       172        35  DCM       H1             11.9836842143        6.4302410967       10.6700001245  CLST      35              1.0000000000
       173        35  DCM       H2             10.8470904497        5.0880792792       10.1588106965  CLST      35              1.0000000000
       174        35  DCM       CL1            10.6968951788        7.0069765937        8.7389976663  CLST      35              1.0000000000
       175        35  DCM       CL2            12.8893687487        5.0780424870        8.9170295766  CLST      35              1.0000000000
       176        36  DCM       C              -6.2607023310       -8.2093755585        5.8872221303  CLST      36              1.0000000000
       177        36  DCM       H1             -6.1414120956       -8.9287582744        6.7252385593  CLST      36              1.0000000000
       178        36  DCM       H2             -5.3139723141       -7.6619656250        5.6937482314  CLST      36              1.0000000000
       179        36  DCM       CL1            -6.7242513619       -9.1080698488        4.4131149046  CLST      36              1.0000000000
       180        36  DCM       CL2            -7.5427029618       -7.0373174115        6.3075315184  CLST      36              1.0000000000
       181        37  DCM       C              11.0578822536        8.5219042761        2.5010928646  CLST      37              1.0000000000
       182        37  DCM       H1             12.1188288057        8.7026318079        2.2310813454  CLST      37              1.0000000000
       183        37  DCM       H2             10.9783763836        8.0667567357        3.5098435520  CLST      37              1.0000000000
       184        37  DCM       CL1            10.1833744862       10.0797205348        2.4940318276  CLST      37              1.0000000000
       185        37  DCM       CL2            10.3289667760        7.4135605868        1.3028096429  CLST      37              1.0000000000
       186        38  DCM       C               6.9380209090      -11.4031765287       -1.0006043571  CLST      38              1.0000000000
       187        38  DCM       H1              5.9415262187      -11.8746001256       -1.1381332277  CLST      38              1.0000000000
       188        38  DCM       H2              7.2654668424      -10.8879191578       -1.9277331542  CLST      38              1.0000000000
       189        38  DCM       CL1             6.8420664527      -10.2095291479        0.3261225166  CLST      38              1.0000000000
       190        38  DCM       CL2             8.1271070839      -12.6730456988       -0.5903461900  CLST      38              1.0000000000
       191        39  DCM       C              -7.5301647305       -7.9301150368       -7.6711174825  CLST      39              1.0000000000
       192        39  DCM       H1             -7.5457507664       -8.9676262533       -8.0665523613  CLST      39              1.0000000000
       193        39  DCM       H2             -6.4910385721       -7.5928635602       -7.4737238586  CLST      39              1.0000000000
       194        39  DCM       CL1            -8.2725199738       -6.8369176603       -8.8748099955  CLST      39              1.0000000000
       195        39  DCM       CL2            -8.4564309182       -7.8719575734       -6.1439305351  CLST      39              1.0000000000
       196        40  DCM       C              15.0440652093       -9.7880368349       -4.7925243687  CLST      40              1.0000000000
       197        40  DCM       H1             15.7339495889      -10.4962668729       -5.2981076514  CLST      40              1.0000000000
       198        40  DCM       H2             15.4893676857       -9.3970165155       -3.8532201755  CLST      40              1.0000000000
       199        40  DCM       CL1            13.5212290992      -10.6393894743       -4.4044230198  CLST      40              1.0000000000
       200        40  DCM       CL2            14.7105291541       -8.4183266985       -5.8915942839  CLST      40              1.0000000000
       201        41  DCM       C              -0.2480724626       -5.2056206601       -7.1264344759  CLST      41              1.0000000000
       202        41  DCM       H1             -0.6253530987       -5.7862543067       -6.2607966965  CLST      41              1.0000000000
       203        41  DCM       H2             -0.4296168257       -4.1188806448       -6.9859962658  CLST      41              1.0000000000
       204        41  DCM       CL1             1.5081052116       -5.4911619953       -7.2876989685  CLST      41              1.0000000000
       205        41  DCM       CL2            -1.0911148048       -5.7580361738       -8.6035862208  CLST      41              1.0000000000
       206        42  DCM       C               1.6736209871       -1.0707399686        2.6358919919  CLST      42              1.0000000000
       207        42  DCM       H1              2.1836563670       -0.3051109936        2.0133837402  CLST      42              1.0000000000
       208        42  DCM       H2              0.5705420039       -1.0080016104        2.5198692016  CLST      42              1.0000000000
       209        42  DCM       CL1             2.2227502704       -2.6955919302        2.1340119975  CLST      42              1.0000000000
       210        42  DCM       CL2             2.0886775239       -0.7984796696        4.3507902672  CLST      42              1.0000000000
       211        43  DCM       C              -1.8022067370        8.4153160803        2.0105551308  CLST      43              1.0000000000
       212        43  DCM       H1             -2.0974029427        9.3168940180        1.4334208126  CLST      43              1.0000000000
       213        43  DCM       H2             -0.9039729265        7.9349430497        1.5676453993  CLST      43              1.0000000000
       214        43  DCM       CL1            -1.4394158921        8.8952821175        3.6926224381  CLST      43              1.0000000000
       215        43  DCM       CL2            -3.1549534743        7.2490386947        1.9950339047  CLST      43              1.0000000000
       216        44  DCM       C              -5.3920875896       -3.5369514353       -7.1103351260  CLST      44              1.0000000000
       217        44  DCM       H1             -5.5208592716       -3.6398365211       -8.2085047704  CLST      44              1.0000000000
       218        44  DCM       H2             -5.6417857720       -2.5079933308       -6.7762455280  CLST      44              1.0000000000
       219        44  DCM       CL1            -6.4703187149       -4.6972811023       -6.2848077781  CLST      44              1.0000000000
       220        44  DCM       CL2            -3.6953881046       -3.8950313131       -6.6839773813  CLST      44              1.0000000000
       221        45  DCM       C              -7.3461658533       -5.9184681280        2.7812706189  CLST      45              1.0000000000
       222        45  DCM       H1             -6.3020089083       -6.1839577242        3.0533679975  CLST      45              1.0000000000
       223        45  DCM       H2             -7.9993293161       -5.8979985486        3.6779561312  CLST      45              1.0000000000
       224        45  DCM       CL1            -7.3627810972       -4.3038696950        2.0182071672  CLST      45              1.0000000000
       225        45  DCM       CL2            -7.9689940699       -7.1394272003        1.6380667032  CLST      45              1.0000000000
       226        46  DCM       C               0.1373299964        6.8070535913       -7.7956645257  CLST      46              1.0000000000
       227        46  DCM       H1              0.1232334004        6.5191669488       -6.7236077362  CLST      46              1.0000000000
       228        46  DCM       H2              0.7606890237        6.1056455922       -8.3887592174  CLST      46              1.0000000000
       229        46  DCM       CL1            -1.5294822711        6.7740282430       -8.4350641110  CLST      46              1.0000000000
       230        46  DCM       CL2             0.8079289188        8.4561715036       -7.9415836616  CLST      46              1.0000000000
       231        47  DCM       C              -0.5036599604        7.7968273342        8.0808796042  CLST      47              1.0000000000
       232        47  DCM       H1              0.1446581175        7.2809203106        8.8196066319  CLST      47              1.0000000000
       233        47  DCM       H2             -1.0478870198        8.6444655161        8.5473493350  CLST      47              1.0000000000
       234        47  DCM       CL1            -1.6904835749        6.6279022927        7.4379674530  CLST      47              1.0000000000
       235        47  DCM       CL2             0.5120707861        8.4180490612        6.7486960393  CLST      47              1.0000000000
       236        48  DCM       C               1.5205185992       -4.6858870978       -3.5831177220  CLST      48              1.0000000000
       237        48  DCM       H1              1.4303683066       -4.8281584510       -2.4868465410  CLST      48              1.0000000000
       238        48  DCM       H2              1.1553215767       -5.5804069725       -4.1329486891  CLST      48              1.0000000000
       239        48  DCM       CL1             0.5489498458       -3.2667702035       -4.0702716586  CLST      48              1.0000000000
       240        48  DCM       CL2             3.2388356331       -4.4135284272       -3.9891425412  CLST      48              1.0000000000
       241        49  DCM       C              12.7420122958        9.2939846729       -0.7185210206  CLST      49              1.0000000000
       242        49  DCM       H1             13.1351179016        8.3468768747       -0.2921798445  CLST      49              1.0000000000
       243        49  DCM       H2             11.6339174878        9.3299776983       -0.6579484388  CLST      49              1.0000000000
       244        49  DCM       CL1            13.2325147667        9.4102518504       -2.4335783530  CLST      49              1.0000000000
       245        49  DCM       CL2            13.4191199477       10.6682206062        0.2024633283  CLST      49              1.0000000000
       246        50  DCM       C              -4.7214716184       11.5193128701       -6.1273281506  CLST      50              1.0000000000
       247        50  DCM       H1             -3.8661561228       11.1338295964       -6.7200589239  CLST      50              1.0000000000
       248        50  DCM       H2             -4.6804593531       12.6258169871       -6.0411528881  CLST      50              1.0000000000
       249        50  DCM       CL1            -6.2467606739       11.0526997092       -6.9336957809  CLST      50              1.0000000000
       250        50  DCM       CL2            -4.6609806738       10.8046189352       -4.4912062453  CLST      50              1.0000000000
       251        51  DCM       C              -8.4728909021        9.1220530373        6.6065848579  CLST      51              1.0000000000
       252        51  DCM       H1             -7.8081591458        8.6758737165        7.3757981083  CLST      51              1.0000000000
       253        51  DCM       H2             -8.8310733189        8.3494688977        5.8947160672  CLST      51              1.0000000000
       254        51  DCM       CL1            -9.8796647140        9.8633210676        7.4217393145  CLST      51              1.0000000000
       255        51  DCM       CL2            -7.5672386622       10.3701984972        5.7031700728  CLST      51              1.0000000000
       256        52  DCM       C              -2.3920531417       10.0179537898       -9.0848702630  CLST      52              1.0000000000
       257        52  DCM       H1             -2.2133922632        9.7294078236       -8.0282427275  CLST      52              1.0000000000
       258        52  DCM       H2             -1.6477152185        9.5378352595       -9.7543015443  CLST      52              1.0000000000
       259        52  DCM       CL1            -4.0307556229        9.4900674488       -9.5625584113  CLST      52              1.0000000000
       260        52  DCM       CL2            -2.2582063267       11.7932516274       -9.2354795185  CLST      52              1.0000000000
       261        53  DCM       C              11.6679414865        5.3050489945        5.5240594231  CLST      53              1.0000000000
       262        53  DCM       H1             10.7991179509        5.5006931611        6.1855554994  CLST      53              1.0000000000
       263        53  DCM       H2             12.2674316190        4.4481848720        5.8975193217  CLST      53              1.0000000000
       264        53  DCM       CL1            12.6978143836        6.7650215307        5.4800270916  CLST      53              1.0000000000
       265        53  DCM       CL2            11.0697188416        4.9288374904        3.8834958507  CLST      53              1.0000000000
       266        54  DCM       C              -1.4073708953       -2.1837781252        5.0927922145  CLST      54              1.0000000000
       267        54  DCM       H1             -0.6449150258       -1.5604726511        5.6016137401  CLST      54              1.0000000000
       268        54  DCM       H2             -2.1898521242       -2.5198036241        5.8061007622  CLST      54              1.0000000000
       269        54  DCM       CL1            -2.1684850571       -1.2252713450        3.7911007435  CLST      54              1.0000000000
       270        54  DCM       CL2            -0.6017894642       -3.6165909029        4.3969204193  CLST      54              1.0000000000
       271        55  DCM       C               4.2634747185        2.0248745058        5.4050045402  CLST      55              1.0000000000
       272        55  DCM       H1              5.1837119067        2.6088987014        5.6156097365  CLST      55              1.0000000000
       273        55  DCM       H2              4.4879212971        1.1398275111        4.7742683415  CLST      55              1.0000000000
       274        55  DCM       CL1             3.0986573939        3.0668680428        4.5413014610  CLST      55              1.0000000000
       275        55  DCM       CL2             3.5570642143        1.4750908676        6.9518503107  CLST      55              1.0000000000
       276        56  DCM       C              10.8127788171      -10.1877537720       -0.3463068156  CLST      56              1.0000000000
       277        56  DCM       H1             10.0910063333      -10.7030828411        0.3213046604  CLST      56              1.0000000000
       278        56  DCM       H2             11.5727505367       -9.6343980605        0.2450625650  CLST      56              1.0000000000
       279        56  DCM       CL1             9.9213547083       -9.0356543125       -1.3815676852  CLST      56              1.0000000000
       280        56  DCM       CL2            11.6363675049      -11.4049622079       -1.3617339264  CLST      56              1.0000000000
       281        57  DCM       C             -10.8308087443       11.5764651398        4.1025073444  CLST      57              1.0000000000
       282        57  DCM       H1            -10.2525311112       11.7070911094        5.0414267293  CLST      57              1.0000000000
       283        57  DCM       H2            -11.5209896131       12.4306549032        3.9371443305  CLST      57              1.0000000000
       284        57  DCM       CL1            -9.6928995978       11.4727600916        2.7274438272  CLST      57              1.0000000000
       285        57  DCM       CL2           -11.7876724063       10.0706960909        4.2131233867  CLST      57              1.0000000000
       286        58  DCM       C              -0.4158412826       -3.2548302069       -0.4057101856  CLST      58              1.0000000000
       287        58  DCM       H1             -0.8915118533       -3.5301100550       -1.3680770635  CLST      58              1.0000000000
       288        58  DCM       H2              0.6776361307       -3.4690798850       -0.4249050356  CLST      58              1.0000000000
       289        58  DCM       CL1            -0.6593246135       -1.5123812220       -0.1100084607  CLST      58              1.0000000000
       290        58  DCM       CL2            -1.1690467808       -4.1967524646        0.9094800997  CLST      58              1.0000000000
       291        59  DCM       C               1.2891064274        3.6656560117        8.9660739133  CLST      59              1.0000000000
       292        59  DCM       H1              0.9016713691        2.6258999677        8.9508155741  CLST      59              1.0000000000
       293        59  DCM       H2              2.3721987743        3.6847407684        9.2114216334  CLST      59              1.0000000000
       294        59  DCM       CL1             0.3900417049        4.6017314395       10.1940044850  CLST      59              1.0000000000
       295        59  DCM       CL2             1.0463336047        4.3958660726        7.3554556570  CLST      59              1.0000000000
       296        60  DCM       C               2.2539868651       -1.1640588251       11.2313385324  CLST      60              1.0000000000
       297        60  DCM       H1              1.8406449192       -0.8651632866       12.2154793230  CLST      60              1.0000000000
       298        60  DCM       H2              1.6419810224       -1.9621084735       10.7632308385  CLST      60              1.0000000000
       299        60  DCM       CL1             3.9194275282       -1.7752978183       11.4587049884  CLST      60              1.0000000000
       300        60  DCM       CL2             2.2692307777        0.2576257368       10.1470005532  CLST      60              1.0000000000
       301        61  DCM       C               3.8164738065        6.6483849355        7.3651413136  CLST      61              1.0000000000
       302        61  DCM       H1              4.5531388092        7.4222153623        7.0618827901  CLST      61              1.0000000000
       303        61  DCM       H2              2.9835210263        6.5854891445        6.6337672822  CLST      61              1.0000000000
       304        61  DCM       CL1             4.6351537024        5.0620811461        7.4486608555  CLST      61              1.0000000000
       305        61  DCM       CL2             3.1543481449        7.0705736467        8.9709306318  CLST      61              1.0000000000
       306        62  DCM       C              -7.7558465560       -9.0843466965       -2.7574350025  CLST      62              1.0000000000
       307        62  DCM       H1             -7.0981904697       -8.6152307021       -3.5188553473  CLST      62              1.0000000000
       308        62  DCM       H2             -8.1396457895      -10.0651218632       -3.1097811305  CLST      62              1.0000000000
       309        62  DCM       CL1            -6.8195492389       -9.3298950138       -1.2552644285  CLST      62              1.0000000000
       310        62  DCM       CL2            -9.1388782490       -7.9980279965       -2.4405762325  CLST      62              1.0000000000
       311        63  DCM       C              -1.0357386115        1.9607420468        5.5085479798  CLST      63              1.0000000000
       312        63  DCM       H1             -2.0650676405        1.5469931167        5.4686128682  CLST      63              1.0000000000
       313        63  DCM       H2             -1.0453272504        3.0235777275        5.8279173876  CLST      63              1.0000000000
       314        63  DCM       CL1            -0.3013266491        1.8520813677        3.8855838966  CLST      63              1.0000000000
       315        63  DCM       CL2            -0.0737816160        1.0146868390        6.6765913589  CLST      63              1.0000000000
       316        64  DCM       C               2.3596013378       -3.4710541312        6.5746183488  CLST      64              1.0000000000
       317        64  DCM       H1              1.4475294456       -2.8521793098        6.4477304730  CLST      64              1.0000000000
       318        64  DCM       H2              3.0563866928       -3.3352237972        5.7205179473  CLST      64              1.0000000000
       319        64  DCM       CL1             3.1833713569       -2.9800419481        8.0801869901  CLST      64              1.0000000000
       320        64  DCM       CL2             1.8891398629       -5.1906568732        6.6730267471  CLST      64              1.0000000000
       321        65  DCM       C              16.7691417384        9.8397897156       -1.2978733717  CLST      65              1.0000000000
       322        65  DCM       H1             16.5887107107       10.7291346330       -0.6575450736  CLST      65              1.0000000000
       323        65  DCM       H2             16.1609318489        9.8862228757       -2.2257794588  CLST      65              1.0000000000
       324        65  DCM       CL1            18.4996142471        9.7760534100       -1.7413046153  CLST      65              1.0000000000
       325        65  DCM       CL2            16.3247411691        8.3690791750       -0.3857933651  CLST      65              1.0000000000
       326        66  DCM       C               5.5649903192       -2.1791199587        3.9833505571  CLST      66              1.0000000000
       327        66  DCM       H1              6.4990917690       -2.7600313545        3.8291602776  CLST      66              1.0000000000
       328        66  DCM       H2              4.6717239795       -2.8284791391        3.8796008585  CLST      66              1.0000000000
       329        66  DCM       CL1             5.4802564543       -0.8733432850        2.7647662057  CLST      66              1.0000000000
       330        66  DCM       CL2             5.5825526640       -1.4770343039        5.6274125743  CLST      66              1.0000000000
       331        67  DCM       C              -6.9015740056        5.3412021447        1.0088414282  CLST      67              1.0000000000
       332        67  DCM       H1             -5.8936743577        5.6574625816        0.6651684249  CLST      67              1.0000000000
       333        67  DCM       H2             -7.1618827179        5.8199738042        1.9755839734  CLST      67              1.0000000000
       334        67  DCM       CL1            -8.1093666298        5.8188738414       -0.2203918262  CLST      67              1.0000000000
       335        67  DCM       CL2            -6.9199436468        3.5659686046        1.2161842288  CLST      67              1.0000000000
       336        68  DCM       C              -6.2448670608       -5.6914037882       -1.1808153526  CLST      68              1.0000000000
       337        68  DCM       H1             -6.3834127815       -4.6047776465       -0.9992257009  CLST      68              1.0000000000
       338        68  DCM       H2             -7.1912983271       -6.2429147555       -1.0080797299  CLST      68              1.0000000000
       339        68  DCM       CL1            -5.7384922738       -5.9419009691       -2.8744681737  CLST      68              1.0000000000
       340        68  DCM       CL2            -4.9916367102       -6.3211795128       -0.0697325787  CLST      68              1.0000000000
       341        69  DCM       C              10.1014364986       -9.3210155198       -7.8891283116  CLST      69              1.0000000000
       342        69  DCM       H1              9.7008781270       -8.8585293251       -6.9629057508  CLST      69              1.0000000000
       343        69  DCM       H2              9.4550638159      -10.1575893932       -8.2289514423  CLST      69              1.0000000000
       344        69  DCM       CL1            10.1738049012       -8.0778925005       -9.1710715817  CLST      69              1.0000000000
       345        69  DCM       CL2            11.7424099951       -9.9502496530       -7.5639148043  CLST      69              1.0000000000
       346        70  DCM       C               3.8142278148        5.7475680651       -8.2061134053  CLST      70              1.0000000000
       347        70  DCM       H1              3.5142974531        6.8136492100       -8.2923414520  CLST      70              1.0000000000
       348        70  DCM       H2              4.9190519160        5.6450946986       -8.1575921441  CLST      70              1.0000000000
       349        70  DCM       CL1             3.1015750164        5.0590150014       -6.7181411299  CLST      70              1.0000000000
       350        70  DCM       CL2             3.2119344493        4.8578872638       -9.6342464061  CLST      70              1.0000000000
       351        71  DCM       C             -14.8376515426       -6.2724345590        2.5581381262  CLST      71              1.0000000000
       352        71  DCM       H1            -14.2736790006       -6.9696877251        1.9041758501  CLST      71              1.0000000000
       353        71  DCM       H2            -15.8908830357       -6.1744373832        2.2210556061  CLST      71              1.0000000000
       354        71  DCM       CL1           -14.8153183188       -6.9033270539        4.2305317266  CLST      71              1.0000000000
       355        71  DCM       CL2           -14.0566435820       -4.6647398353        2.5067050338  CLST      71              1.0000000000
       356        72  DCM       C               3.1504651370       -0.1821437096      -10.7970297843  CLST      72              1.0000000000
       357        72  DCM       H1              2.5734055948       -0.4008894446       -9.8743863680  CLST      72              1.0000000000
       358        72  DCM       H2              3.7700142065       -1.0540757738      -11.0952156643  CLST      72              1.0000000000
       359        72  DCM       CL1             2.0099158397        0.2056650619      -12.1183602492  CLST      72              1.0000000000
       360        72  DCM       CL2             4.2216824423        1.2165690408      -10.4928509706  CLST      72              1.0000000000
       361        73  DCM       C               7.8728465013        7.2273463115        4.0965098712  CLST      73              1.0000000000
       362        73  DCM       H1              8.3317978940        6.3158739639        3.6580557389  CLST      73              1.0000000000
       363        73  DCM       H2              7.8702985525        8.0633201047        3.3653074829  CLST      73              1.0000000000
       364        73  DCM       CL1             6.1881358911        6.8611087641        4.5689397911  CLST      73              1.0000000000
       365        73  DCM       CL2             8.8124834580        7.7172948406        5.5357203594  CLST      73              1.0000000000
       366        74  DCM       C              -2.2522640890       -6.2782781889       -2.1852578594  CLST      74              1.0000000000
       367        74  DCM       H1             -2.6090692270       -5.4694412585       -1.5160710242  CLST      74              1.0000000000
       368        74  DCM       H2             -2.9497349965       -7.1451370186       -2.1742507765  CLST      74              1.0000000000
       369        74  DCM       CL1            -2.1506565517       -5.6417867907       -3.8494373711  CLST      74              1.0000000000
       370        74  DCM       CL2            -0.6399854411       -6.8230188945       -1.6405376245  CLST      74              1.0000000000
       371        75  DCM       C             -12.8639970690        5.8772952974        5.5064799902  CLST      75              1.0000000000
       372        75  DCM       H1            -13.4772709672        5.6857570036        6.4123194468  CLST      75              1.0000000000
       373        75  DCM       H2            -12.5536655763        4.9268103077        5.0234074226  CLST      75              1.0000000000
       374        75  DCM       CL1           -13.8293571800        6.8314515214        4.3432871275  CLST      75              1.0000000000
       375        75  DCM       CL2           -11.4039935647        6.7940383249        5.9773398961  CLST      75              1.0000000000
       376        76  DCM       C              -3.4415830543       -7.8937557004       -6.4300228801  CLST      76              1.0000000000
       377        76  DCM       H1             -3.7452717799       -8.2784526029       -7.4249509824  CLST      76              1.0000000000
       378        76  DCM       H2             -3.4039641662       -6.7846301174       -6.4252242880  CLST      76              1.0000000000
       379        76  DCM       CL1            -4.6273688057       -8.4401198493       -5.2103808261  CLST      76              1.0000000000
       380        76  DCM       CL2            -1.8215430747       -8.5365419013       -6.0329580635  CLST      76              1.0000000000
       381        77  DCM       C              -4.0868869098       -7.5410755647      -10.4754927466  CLST      77              1.0000000000
       382        77  DCM       H1             -2.9950035246       -7.6688283051      -10.3173955916  CLST      77              1.0000000000
       383        77  DCM       H2             -4.3128652963       -7.3081407655      -11.5378938637  CLST      77              1.0000000000
       384        77  DCM       CL1            -4.9253981396       -9.0524889689      -10.0187424649  CLST      77              1.0000000000
       385        77  DCM       CL2            -4.6682565091       -6.1979025403       -9.4518785691  CLST      77              1.0000000000
       386        78  DCM       C              -1.5796037810        0.8031981996       -2.7051620382  CLST      78              1.0000000000
       387        78  DCM       H1             -1.9740681724        0.3609491506       -1.7677731090  CLST      78              1.0000000000
       388        78  DCM       H2             -1.0390449744        0.0416579813       -3.3057422908  CLST      78              1.0000000000
       389        78  DCM       CL1            -2.9556348905        1.4326903747       -3.6506824274  CLST      78              1.0000000000
       390        78  DCM       CL2            -0.4595870209        2.1351731859       -2.3000090992  CLST      78              1.0000000000
       391        79  DCM       C             -11.6522306106       -4.7906571487        5.3028825594  CLST      79              1.0000000000
       392        79  DCM       H1            -12.2265889346       -5.5906034323        4.7909886095  CLST      79              1.0000000000
       393        79  DCM       H2            -12.3173136731       -3.9541723794        5.6044700145  CLST      79              1.0000000000
       394        79  DCM       CL1           -10.8795212719       -5.4789767157        6.7596637872  CLST      79              1.0000000000
       395        79  DCM       CL2           -10.3990065535       -4.1693548521        4.1899706974  CLST      79              1.0000000000
       396        80  DCM       C               9.2440198663       -9.5092143427        3.2873560402  CLST      80              1.0000000000
       397        80  DCM       H1              9.0745793472       -9.1546966975        4.3260035700  CLST      80              1.0000000000
       398        80  DCM       H2              8.3783433367      -10.1025670536        2.9233919005  CLST      80              1.0000000000
       399        80  DCM       CL1             9.4701917340       -8.0921699052        2.2202163225  CLST      80              1.0000000000
       400        80  DCM       CL2            10.7075348405      -10.5352076385        3.2537000506  CLST      80              1.0000000000
       401        81  DCM       C              -9.9755856207      -10.1884843254        0.6624685647  CLST      81              1.0000000000
       402        81  DCM       H1            -10.8963978039      -10.2004063570        1.2831257694  CLST      81              1.0000000000
       403        81  DCM       H2             -9.7095953985       -9.1542120323        0.3600674191  CLST      81              1.0000000000
       404        81  DCM       CL1            -8.6280616559      -10.8799041117        1.6111814262  CLST      81              1.0000000000
       405        81  DCM       CL2           -10.2521521224      -11.1662623407       -0.8077586408  CLST      81              1.0000000000
       406        82  DCM       C               8.2160016971        4.1998204525        7.2202683563  CLST      82              1.0000000000
       407        82  DCM       H1              7.3241973291        3.9240308708        7.8211174554  CLST      82              1.0000000000
       408        82  DCM       H2              8.4118051295        5.2911910329        7.2764395541  CLST      82              1.0000000000
       409        82  DCM       CL1             7.9339293006        3.7448378449        5.5155037762  CLST      82              1.0000000000
       410        82  DCM       CL2             9.6346144876        3.3183234255        7.8561840274  CLST      82              1.0000000000
       411        83  DCM       C               2.6642493689        0.5308362788       -3.3724172386  CLST      83              1.0000000000
       412        83  DCM       H1              3.6966764402        0.3867087849       -3.7609359830  CLST      83              1.0000000000
       413        83  DCM       H2              2.5579259170        1.5174703514       -2.8758302560  CLST      83              1.0000000000
       414        83  DCM       CL1             1.5145312880        0.4484015740       -4.7375623849  CLST      83              1.0000000000
       415        83  DCM       CL2             2.2965242900       -0.7603659371       -2.1926005436  CLST      83              1.0000000000
       416        84  DCM       C              17.7728484799        6.6174696484       -3.4305201980  CLST      84              1.0000000000
       417        84  DCM       H1             18.5921355565        7.2365496016       -3.8532489445  CLST      84              1.0000000000
       418        84  DCM       H2             17.7936169604        6.6345124525       -2.3204642615  CLST      84              1.0000000000
       419        84  DCM       CL1            16.2048584600        7.2661624635       -3.9933710328  CLST      84              1.0000000000
       420        84  DCM       CL2            17.9674210697        4.9304648150       -3.9886911873  CLST      84              1.0000000000
       421        85  DCM       C              -3.7215907128        4.0445722190        3.3178742246  CLST      85              1.0000000000
       422        85  DCM       H1             -4.6034327373        4.6111183729        2.9524678468  CLST      85              1.0000000000
       423        85  DCM       H2             -2.8944125047        4.0678782520        2.5801983749  CLST      85              1.0000000000
       424        85  DCM       CL1            -3.1405058430        4.7888253701        4.8293735703  CLST      85              1.0000000000
       425        85  DCM       CL2            -4.1934860114        2.3461376254        3.6113558830  CLST      85              1.0000000000
       426        86  DCM       C               9.5682445120      -11.2203426437       -4.3428066234  CLST      86              1.0000000000
       427        86  DCM       H1             10.5460070958      -10.7009676666       -4.2588208018  CLST      86              1.0000000000
       428        86  DCM       H2              9.3455467148      -11.8009042241       -3.4224675146  CLST      86              1.0000000000
       429        86  DCM       CL1             8.2835100732      -10.0029277742       -4.5907852497  CLST      86              1.0000000000
       430        86  DCM       CL2             9.6209804606      -12.3373946052       -5.7363916802  CLST      86              1.0000000000
       431        87  DCM       C              -1.9702908099       -7.1924781993        3.2860580408  CLST      87              1.0000000000
       432        87  DCM       H1             -3.0118142529       -7.3144177609        2.9199886218  CLST      87              1.0000000000
       433        87  DCM       H2             -1.5012117797       -6.2835666295        2.8544387807  CLST      87              1.0000000000
       434        87  DCM       CL1            -1.9896024313       -7.0399321316        5.0665026071  CLST      87              1.0000000000
       435        87  DCM       CL2            -1.0115540980       -8.6217557297        2.8078570579  CLST      87              1.0000000000
       436        88  DCM       C              -1.5819891412        0.4252809326       -6.8532080142  CLST      88              1.0000000000
       437        88  DCM       H1             -1.0089413293        0.3297126025       -7.7982280009  CLST      88              1.0000000000
       438        88  DCM       H2             -1.1179176796        1.1749768643       -6.1792915724  CLST      88              1.0000000000
       439        88  DCM       CL1            -1.6051127609       -1.1570712934       -6.0280189310  CLST      88              1.0000000000
       440        88  DCM       CL2            -3.2534854632        0.9311509096       -7.2309288534  CLST      88              1.0000000000
       441        89  DCM       C               2.4157358094       -5.5784002541       11.0384008812  CLST      89              1.0000000000
       442        89  DCM       H1              3.1282628370       -6.1758027948       11.6444390248  CLST      89              1.0000000000
       443        89  DCM       H2              2.9558771031       -4.8932100770       10.3502343042  CLST      89              1.0000000000
       444        89  DCM       CL1             1.3995066371       -6.6892545356       10.0749451540  CLST      89              1.0000000000
       445        89  DCM       CL2             1.3838896081       -4.6121163925       12.1323008251  CLST      89              1.0000000000
       446        90  DCM       C             -10.4914043491       -8.0993733593        3.9085911613  CLST      90              1.0000000000
       447        90  DCM       H1             -9.9406939493       -7.3101615490        4.4624943001  CLST      90              1.0000000000
       448        90  DCM       H2             -9.7964719046       -8.8809081417        3.5374368104  CLST      90              1.0000000000
       449        90  DCM       CL1           -11.6818306227       -8.8529477751        5.0059369826  CLST      90              1.0000000000
       450        90  DCM       CL2           -11.3366372465       -7.3547321828        2.5203635289  CLST      90              1.0000000000
       451        91  DCM       C              14.8831363364        4.3960304622       -1.6727512732  CLST      91              1.0000000000
       452        91  DCM       H1             15.3086443901        4.2669653676       -2.6901291195  CLST      91              1.0000000000
       453        91  DCM       H2             14.3382505245        3.4851716060       -1.3473429597  CLST      91              1.0000000000
       454        91  DCM       CL1            16.2127290959        4.7198380698       -0.5215656162  CLST      91              1.0000000000
       455        91  DCM       CL2            13.7458825791        5.7747520587       -1.6934360720  CLST      91              1.0000000000
       456        92  DCM       C               5.5843209152       -7.1383783500        1.9498109260  CLST      92              1.0000000000
       457        92  DCM       H1              6.4203542027       -7.2670523698        1.2291314455  CLST      92              1.0000000000
       458        92  DCM       H2              4.6425382629       -7.5717822045        1.5508111964  CLST      92              1.0000000000
       459        92  DCM       CL1             6.0031104763       -7.9685217048        3.4766903457  CLST      92              1.0000000000
       460        92  DCM       CL2             5.3408632181       -5.3934200226        2.2517432258  CLST      92              1.0000000000
       461        93  DCM       C              -4.3614317212       -1.1277374003        0.8241921024  CLST      93              1.0000000000
       462        93  DCM       H1             -5.0731557768       -0.9698116569        1.6608345975  CLST      93              1.0000000000
       463        93  DCM       H2             -3.3264342435       -0.8579343026        1.1208719691  CLST      93              1.0000000000
       464        93  DCM       CL1            -4.8485991552       -0.1169208792       -0.5629161966  CLST      93              1.0000000000
       465        93  DCM       CL2            -4.3922022472       -2.8472601832        0.3468933865  CLST      93              1.0000000000
       466        94  DCM       C              -1.0257127146        9.6665760154       -4.5854955121  CLST      94              1.0000000000
       467        94  DCM       H1             -0.0024071717        9.2655462894       -4.4259014854  CLST      94              1.0000000000
       468        94  DCM       H2             -1.4777223072       10.0020783491       -3.6286888767  CLST      94              1.0000000000
       469        94  DCM       CL1            -0.9411025161       11.0568837786       -5.7054012375  CLST      94              1.0000000000
       470        94  DCM       CL2            -2.0483329871        8.3834722400       -5.2926356812  CLST      94              1.0000000000
       471        95  DCM       C              -3.0672363967        7.9610961065       -1.6670203294  CLST      95              1.0000000000
       472        95  DCM       H1             -3.6016966516        7.2968027972       -0.9559505415  CLST      95              1.0000000000
       473        95  DCM       H2             -3.3935394145        7.7622671357       -2.7098240461  CLST      95              1.0000000000
       474        95  DCM       CL1            -3.4232819817        9.6633949352       -1.2556090893  CLST      95              1.0000000000
       475        95  DCM       CL2            -1.3076541920        7.6713327410       -1.5368750922  CLST      95              1.0000000000
