* INITIAL
*  DATE:     6/28/26      1:59:43      CREATED BY USER: boittier
*
       490  EXT
         1         1  DCM       C               4.3423962567        2.0322560275      -12.8550143131  CLST      1               1.0000000000
         2         1  DCM       H1              3.5439831411        1.3456210925      -12.5030408609  CLST      1               1.0000000000
         3         1  DCM       H2              4.5350594697        1.8985108905      -13.9400520775  CLST      1               1.0000000000
         4         1  DCM       CL1             3.8263770935        3.7164618154      -12.5611295234  CLST      1               1.0000000000
         5         1  DCM       CL2             5.8453409736        1.6960363677      -11.9459796560  CLST      1               1.0000000000
         6         2  DCM       C               1.4342484222        2.4353466990       -4.3523783255  CLST      2               1.0000000000
         7         2  DCM       H1              0.3467887879        2.6556411753       -4.3405706846  CLST      2               1.0000000000
         8         2  DCM       H2              2.0211950061        3.3166868529       -4.0163302663  CLST      2               1.0000000000
         9         2  DCM       CL1             1.7507230809        1.0568397937       -3.2668326971  CLST      2               1.0000000000
        10         2  DCM       CL2             1.9211014282        2.0107061504       -6.0136134343  CLST      2               1.0000000000
        11         3  DCM       C              10.8030732468        1.4316525401       -0.1043897603  CLST      3               1.0000000000
        12         3  DCM       H1             10.8719854704        2.0847840162       -0.9983110158  CLST      3               1.0000000000
        13         3  DCM       H2             10.1371580480        0.5644459708       -0.2949103453  CLST      3               1.0000000000
        14         3  DCM       CL1            12.4400646787        0.8384735298        0.2982775473  CLST      3               1.0000000000
        15         3  DCM       CL2            10.1452221190        2.3742816919        1.2642647381  CLST      3               1.0000000000
        16         4  DCM       C               1.7111074847       -3.7165002042       -8.5422427247  CLST      4               1.0000000000
        17         4  DCM       H1              1.6851222414       -2.6812846211       -8.1430399444  CLST      4               1.0000000000
        18         4  DCM       H2              2.7362971895       -4.1392803055       -8.4905582296  CLST      4               1.0000000000
        19         4  DCM       CL1             0.6086312122       -4.7377062409       -7.5758097744  CLST      4               1.0000000000
        20         4  DCM       CL2             1.1747217432       -3.6934291814      -10.2469694749  CLST      4               1.0000000000
        21         5  DCM       C              -9.9482456391        7.3884002112        0.6686971366  CLST      5               1.0000000000
        22         5  DCM       H1             -9.2060164615        6.6907806131        1.1077678656  CLST      5               1.0000000000
        23         5  DCM       H2            -10.6434086758        6.8558574548       -0.0129770473  CLST      5               1.0000000000
        24         5  DCM       CL1           -10.8936654766        8.1399351319        1.9866753925  CLST      5               1.0000000000
        25         5  DCM       CL2            -9.0822204902        8.6516417776       -0.2532019728  CLST      5               1.0000000000
        26         6  DCM       C              12.8415775835       -3.7002482607        3.2348690650  CLST      6               1.0000000000
        27         6  DCM       H1             11.8142445704       -3.6471377560        3.6536567918  CLST      6               1.0000000000
        28         6  DCM       H2             13.5169976867       -2.9863708737        3.7523067388  CLST      6               1.0000000000
        29         6  DCM       CL1            13.4664699268       -5.3597280144        3.4552873534  CLST      6               1.0000000000
        30         6  DCM       CL2            12.7865717780       -3.2972097682        1.4924426849  CLST      6               1.0000000000
        31         7  DCM       C               8.0585438285        8.4792813208        2.6656482539  CLST      7               1.0000000000
        32         7  DCM       H1              7.7620919321        9.3962992358        3.2185849029  CLST      7               1.0000000000
        33         7  DCM       H2              7.7347246482        8.5316660561        1.6049829217  CLST      7               1.0000000000
        34         7  DCM       CL1             7.2920582956        7.0592138269        3.4351096446  CLST      7               1.0000000000
        35         7  DCM       CL2             9.8375290472        8.3157151075        2.7235627946  CLST      7               1.0000000000
        36         8  DCM       C              -5.6232628000       10.7821181991        6.4312620688  CLST      8               1.0000000000
        37         8  DCM       H1             -5.6476827227        9.6860596306        6.2523368928  CLST      8               1.0000000000
        38         8  DCM       H2             -6.1747657939       11.3258300335        5.6344632926  CLST      8               1.0000000000
        39         8  DCM       CL1            -6.3845356528       11.1295422451        8.0099188791  CLST      8               1.0000000000
        40         8  DCM       CL2            -3.9234200803       11.3319779341        6.4460955932  CLST      8               1.0000000000
        41         9  DCM       C              10.0767413306       -5.7327217765        0.6444085975  CLST      9               1.0000000000
        42         9  DCM       H1             11.1505434168       -5.7122122622        0.3639851336  CLST      9               1.0000000000
        43         9  DCM       H2              9.5675359168       -6.6259708264        0.2219006945  CLST      9               1.0000000000
        44         9  DCM       CL1             9.9441359713       -5.7820230315        2.4241315408  CLST      9               1.0000000000
        45         9  DCM       CL2             9.2826815704       -4.2584825172        0.0216609260  CLST      9               1.0000000000
        46        10  DCM       C              -8.5341551591        3.8130754917       -0.3247924668  CLST      10              1.0000000000
        47        10  DCM       H1             -8.1891622034        2.8148207632       -0.6658815185  CLST      10              1.0000000000
        48        10  DCM       H2             -7.6783842863        4.5081429550       -0.2064178799  CLST      10              1.0000000000
        49        10  DCM       CL1            -9.6628406505        4.4788998273       -1.5378934480  CLST      10              1.0000000000
        50        10  DCM       CL2            -9.3607427066        3.6364522783        1.2491212328  CLST      10              1.0000000000
        51        11  DCM       C               6.1435593319        3.8180672602        2.1053794773  CLST      11              1.0000000000
        52        11  DCM       H1              7.0665987483        3.8953487616        2.7216881445  CLST      11              1.0000000000
        53        11  DCM       H2              5.8928320904        4.7961198761        1.6432472376  CLST      11              1.0000000000
        54        11  DCM       CL1             4.7884333142        3.3043638425        3.1480413074  CLST      11              1.0000000000
        55        11  DCM       CL2             6.4034638480        2.6123944280        0.8146359848  CLST      11              1.0000000000
        56        12  DCM       C              -5.1076995048        3.3865598877       -1.8940562867  CLST      12              1.0000000000
        57        12  DCM       H1             -5.7880881767        2.5393897157       -2.1177166654  CLST      12              1.0000000000
        58        12  DCM       H2             -5.5447495628        4.3476548217       -2.2372716342  CLST      12              1.0000000000
        59        12  DCM       CL1            -4.8299717963        3.4636077140       -0.1313459449  CLST      12              1.0000000000
        60        12  DCM       CL2            -3.5556354374        3.1218161832       -2.7355604135  CLST      12              1.0000000000
        61        13  DCM       C              -4.5781329704       -7.2787416170       -2.3369892694  CLST      13              1.0000000000
        62        13  DCM       H1             -4.5429222680       -8.3418914219       -2.0319596472  CLST      13              1.0000000000
        63        13  DCM       H2             -5.4229654622       -6.7553696870       -1.8429456670  CLST      13              1.0000000000
        64        13  DCM       CL1            -3.0450639265       -6.4830718445       -1.8743336012  CLST      13              1.0000000000
        65        13  DCM       CL2            -4.7926000129       -7.1889297556       -4.1082016640  CLST      13              1.0000000000
        66        14  DCM       C             -11.8129736456        1.4816142327       -2.0379230764  CLST      14              1.0000000000
        67        14  DCM       H1            -12.6525428804        2.0719015731       -1.6134800879  CLST      14              1.0000000000
        68        14  DCM       H2            -11.1815007285        2.1073632705       -2.7028425138  CLST      14              1.0000000000
        69        14  DCM       CL1           -10.8085902787        0.8579019235       -0.6983926196  CLST      14              1.0000000000
        70        14  DCM       CL2           -12.4758040647        0.1166979825       -2.9819949202  CLST      14              1.0000000000
        71        15  DCM       C               3.0100514110       -7.4754025651        9.0685503456  CLST      15              1.0000000000
        72        15  DCM       H1              3.7360060218       -7.4375744991        8.2294048385  CLST      15              1.0000000000
        73        15  DCM       H2              2.1655847394       -8.1579595121        8.8335103441  CLST      15              1.0000000000
        74        15  DCM       CL1             3.8475167115       -8.0598018472       10.5341917661  CLST      15              1.0000000000
        75        15  DCM       CL2             2.3721994397       -5.8313032076        9.3487776886  CLST      15              1.0000000000
        76        16  DCM       C               4.9612474119       -0.0452162033       -5.9850115773  CLST      16              1.0000000000
        77        16  DCM       H1              5.3660614555       -0.7725129005       -5.2535213904  CLST      16              1.0000000000
        78        16  DCM       H2              4.4123654960        0.7671198698       -5.4670197933  CLST      16              1.0000000000
        79        16  DCM       CL1             3.8367675429       -0.8890880336       -7.0852400286  CLST      16              1.0000000000
        80        16  DCM       CL2             6.3147874887        0.6568471527       -6.9157353702  CLST      16              1.0000000000
        81        17  DCM       C               8.1810797164      -13.6836789967       -6.7673661042  CLST      17              1.0000000000
        82        17  DCM       H1              7.5038660840      -14.1708829093       -6.0342173216  CLST      17              1.0000000000
        83        17  DCM       H2              8.0578664918      -14.1259418264       -7.7787106365  CLST      17              1.0000000000
        84        17  DCM       CL1             7.7975078589      -11.9392986166       -6.8436575404  CLST      17              1.0000000000
        85        17  DCM       CL2             9.8734787122      -13.9104992930       -6.2365989922  CLST      17              1.0000000000
        86        18  DCM       C              -9.0138975757       -5.4400624340       -2.6185553711  CLST      18              1.0000000000
        87        18  DCM       H1             -8.8337314071       -4.3567704485       -2.4559364796  CLST      18              1.0000000000
        88        18  DCM       H2            -10.1015061893       -5.6614574712       -2.6544571567  CLST      18              1.0000000000
        89        18  DCM       CL1            -8.2679936564       -5.9282383554       -4.1662649253  CLST      18              1.0000000000
        90        18  DCM       CL2            -8.2770757322       -6.3582036914       -1.2766067731  CLST      18              1.0000000000
        91        19  DCM       C               6.5597729214       -5.2788674414        9.8234117148  CLST      19              1.0000000000
        92        19  DCM       H1              6.4304136412       -6.3441743179       10.1138838650  CLST      19              1.0000000000
        93        19  DCM       H2              6.2216102891       -4.6018313201       10.6388601952  CLST      19              1.0000000000
        94        19  DCM       CL1             8.2846900790       -4.9661504828        9.4840162738  CLST      19              1.0000000000
        95        19  DCM       CL2             5.5919874716       -4.9505035367        8.3629003680  CLST      19              1.0000000000
        96        20  DCM       C              -7.6969862875       -9.9838262948        1.1276319679  CLST      20              1.0000000000
        97        20  DCM       H1             -7.5662388922      -11.0424564350        0.8090396955  CLST      20              1.0000000000
        98        20  DCM       H2             -7.5491677910       -9.8823488256        2.2270687410  CLST      20              1.0000000000
        99        20  DCM       CL1            -9.3465672668       -9.4478979088        0.7080793397  CLST      20              1.0000000000
       100        20  DCM       CL2            -6.4991176242       -8.9687000421        0.2799250192  CLST      20              1.0000000000
       101        21  DCM       C               1.8616499937        5.4836816134       -6.9540940340  CLST      21              1.0000000000
       102        21  DCM       H1              1.9644491782        4.5676691404       -7.5727614901  CLST      21              1.0000000000
       103        21  DCM       H2              1.8025117306        6.3911124285       -7.5922109640  CLST      21              1.0000000000
       104        21  DCM       CL1             0.3736865442        5.3551511089       -5.9763861862  CLST      21              1.0000000000
       105        21  DCM       CL2             3.2797109000        5.6183666229       -5.8778778330  CLST      21              1.0000000000
       106        22  DCM       C               2.7158986240       -7.5365685882        2.1828459560  CLST      22              1.0000000000
       107        22  DCM       H1              3.7291058540       -7.1672921724        2.4409839959  CLST      22              1.0000000000
       108        22  DCM       H2              2.3404613958       -8.2378593719        2.9555416261  CLST      22              1.0000000000
       109        22  DCM       CL1             1.6030543634       -6.1404698270        2.0712922989  CLST      22              1.0000000000
       110        22  DCM       CL2             2.7908354175       -8.3875768613        0.6122154233  CLST      22              1.0000000000
       111        23  DCM       C             -10.7829624125       -2.7471136604        0.0498634643  CLST      23              1.0000000000
       112        23  DCM       H1            -10.2791891953       -3.6534023046        0.4459149641  CLST      23              1.0000000000
       113        23  DCM       H2            -10.0496075638       -1.9331996164       -0.1279126816  CLST      23              1.0000000000
       114        23  DCM       CL1           -11.9945332320       -2.1891735226        1.2371458290  CLST      23              1.0000000000
       115        23  DCM       CL2           -11.5943213084       -3.1516229019       -1.4903835697  CLST      23              1.0000000000
       116        24  DCM       C               3.2146754895       -5.9054907873        5.5005991260  CLST      24              1.0000000000
       117        24  DCM       H1              2.9541892248       -5.2734870495        4.6243063946  CLST      24              1.0000000000
       118        24  DCM       H2              3.3137129735       -5.2916593025        6.4190901529  CLST      24              1.0000000000
       119        24  DCM       CL1             1.9220607448       -7.1131253087        5.7430608464  CLST      24              1.0000000000
       120        24  DCM       CL2             4.7658854686       -6.7276574533        5.1794205780  CLST      24              1.0000000000
       121        25  DCM       C             -10.0274219542       -4.5453192386        5.1211206707  CLST      25              1.0000000000
       122        25  DCM       H1             -9.9610618090       -3.4786387250        5.4222851545  CLST      25              1.0000000000
       123        25  DCM       H2             -9.0279561999       -5.0261221708        5.1287867584  CLST      25              1.0000000000
       124        25  DCM       CL1           -11.0962476035       -5.4125364342        6.2619347589  CLST      25              1.0000000000
       125        25  DCM       CL2           -10.7084629234       -4.6449173246        3.4726065467  CLST      25              1.0000000000
       126        26  DCM       C              -5.8978950987        0.4488342267        1.9258523246  CLST      26              1.0000000000
       127        26  DCM       H1             -5.2281332280        1.3319416788        1.8785731371  CLST      26              1.0000000000
       128        26  DCM       H2             -6.4721033436        0.4372480937        2.8756232260  CLST      26              1.0000000000
       129        26  DCM       CL1            -7.0417176756        0.5088485348        0.5526488362  CLST      26              1.0000000000
       130        26  DCM       CL2            -4.9129202707       -1.0395143557        1.8305588299  CLST      26              1.0000000000
       131        27  DCM       C              13.8345531372        8.6215252825       -0.4329092079  CLST      27              1.0000000000
       132        27  DCM       H1             14.9348156788        8.4727817740       -0.4005884362  CLST      27              1.0000000000
       133        27  DCM       H2             13.5772173504        9.7013977016       -0.4750573947  CLST      27              1.0000000000
       134        27  DCM       CL1            13.1827856936        7.8091715741       -1.8855559291  CLST      27              1.0000000000
       135        27  DCM       CL2            13.1095766466        7.9073119895        1.0365269818  CLST      27              1.0000000000
       136        28  DCM       C              -2.5127908129      -10.3630569678       -1.9055228621  CLST      28              1.0000000000
       137        28  DCM       H1             -2.0710591978       -9.3460444990       -1.8225761973  CLST      28              1.0000000000
       138        28  DCM       H2             -3.1862372741      -10.4279945472       -2.7868783084  CLST      28              1.0000000000
       139        28  DCM       CL1            -1.1946015547      -11.5526019324       -2.0868349774  CLST      28              1.0000000000
       140        28  DCM       CL2            -3.4514242795      -10.7164055067       -0.4284072639  CLST      28              1.0000000000
       141        29  DCM       C              10.0981003720        9.4993410698       -0.8763104853  CLST      29              1.0000000000
       142        29  DCM       H1             10.5922159335        9.5152712774       -1.8720381044  CLST      29              1.0000000000
       143        29  DCM       H2             10.3774822092        8.5887658291       -0.3069617213  CLST      29              1.0000000000
       144        29  DCM       CL1            10.6020600647       10.9380458099        0.0531844511  CLST      29              1.0000000000
       145        29  DCM       CL2             8.3260888516        9.5101140971       -1.1088076995  CLST      29              1.0000000000
       146        30  DCM       C               0.8947175104        6.1942028990      -11.5835532720  CLST      30              1.0000000000
       147        30  DCM       H1              0.7367792116        5.7061671866      -12.5677378563  CLST      30              1.0000000000
       148        30  DCM       H2              0.0520265957        6.8724333877      -11.3337932986  CLST      30              1.0000000000
       149        30  DCM       CL1             1.0161724093        4.9325986067      -10.3253360349  CLST      30              1.0000000000
       150        30  DCM       CL2             2.4087242621        7.1417288724      -11.6360563676  CLST      30              1.0000000000
       151        31  DCM       C              -9.2269833158        5.4976518061       -7.5377858287  CLST      31              1.0000000000
       152        31  DCM       H1             -8.7757264257        5.0715430944       -6.6173229653  CLST      31              1.0000000000
       153        31  DCM       H2            -10.3224261567        5.3177429243       -7.5639361851  CLST      31              1.0000000000
       154        31  DCM       CL1            -8.9233929004        7.2584584309       -7.5697506215  CLST      31              1.0000000000
       155        31  DCM       CL2            -8.4766045512        4.7289606391       -8.9671228786  CLST      31              1.0000000000
       156        32  DCM       C               6.0040218272       -9.7793475575        6.7562715927  CLST      32              1.0000000000
       157        32  DCM       H1              6.4956758865      -10.7538299664        6.9609714631  CLST      32              1.0000000000
       158        32  DCM       H2              6.3023314575       -9.3827377575        5.7623476279  CLST      32              1.0000000000
       159        32  DCM       CL1             4.2304398150      -10.0052502042        6.7829271389  CLST      32              1.0000000000
       160        32  DCM       CL2             6.4879726873       -8.6089815758        8.0179876201  CLST      32              1.0000000000
       161        33  DCM       C             -14.9753789776       -0.7170634251       -0.5050725348  CLST      33              1.0000000000
       162        33  DCM       H1            -15.2245337342       -0.2688450428       -1.4899322259  CLST      33              1.0000000000
       163        33  DCM       H2            -14.2317569686       -1.5344155739       -0.6180243442  CLST      33              1.0000000000
       164        33  DCM       CL1           -14.2948798872        0.5514180683        0.5553764554  CLST      33              1.0000000000
       165        33  DCM       CL2           -16.4664561881       -1.3783463191        0.2261439782  CLST      33              1.0000000000
       166        34  DCM       C               5.3156742147       -1.4741354973      -10.3085174679  CLST      34              1.0000000000
       167        34  DCM       H1              5.9387884542       -1.5029262754      -11.2275382169  CLST      34              1.0000000000
       168        34  DCM       H2              5.6762601585       -0.6922744769       -9.6067040273  CLST      34              1.0000000000
       169        34  DCM       CL1             3.6265908355       -1.1083001531      -10.7630373875  CLST      34              1.0000000000
       170        34  DCM       CL2             5.3954092633       -3.0666852108       -9.4998558244  CLST      34              1.0000000000
       171        35  DCM       C              -8.7914291660       -0.1049071926       -3.9803610551  CLST      35              1.0000000000
       172        35  DCM       H1             -8.1105756023       -0.3299615537       -4.8267217287  CLST      35              1.0000000000
       173        35  DCM       H2             -9.8408803553       -0.0093420498       -4.3283337615  CLST      35              1.0000000000
       174        35  DCM       CL1            -8.6877961799       -1.4293621557       -2.7905483656  CLST      35              1.0000000000
       175        35  DCM       CL2            -8.2812364379        1.4288291629       -3.2221507180  CLST      35              1.0000000000
       176        36  DCM       C             -11.4588719130       -8.2492200603        3.5889737360  CLST      36              1.0000000000
       177        36  DCM       H1            -10.8207562911       -7.6641098123        2.8947650922  CLST      36              1.0000000000
       178        36  DCM       H2            -12.0023521500       -7.5802052654        4.2890161911  CLST      36              1.0000000000
       179        36  DCM       CL1           -12.6465448080       -9.1854290460        2.6358162982  CLST      36              1.0000000000
       180        36  DCM       CL2           -10.4195355881       -9.3613871135        4.5259966068  CLST      36              1.0000000000
       181        37  DCM       C               4.6934722720        3.2693373354       -8.5996146239  CLST      37              1.0000000000
       182        37  DCM       H1              5.6748115479        2.8470406568       -8.9037396643  CLST      37              1.0000000000
       183        37  DCM       H2              4.6087385362        3.3232314369       -7.4927658563  CLST      37              1.0000000000
       184        37  DCM       CL1             4.5440190817        4.9159655150       -9.2766408477  CLST      37              1.0000000000
       185        37  DCM       CL2             3.3890918572        2.2261123566       -9.2347951926  CLST      37              1.0000000000
       186        38  DCM       C              -5.5954393807        7.1215620803        0.9723234034  CLST      38              1.0000000000
       187        38  DCM       H1             -5.8420767802        8.1735485187        1.2254489500  CLST      38              1.0000000000
       188        38  DCM       H2             -4.5066370338        6.9326275554        1.0772287869  CLST      38              1.0000000000
       189        38  DCM       CL1            -6.4844011809        6.0274253467        2.0700760083  CLST      38              1.0000000000
       190        38  DCM       CL2            -6.0775664654        6.8092915753       -0.7163462877  CLST      38              1.0000000000
       191        39  DCM       C               6.1077073619        6.4103987695       -1.5117855215  CLST      39              1.0000000000
       192        39  DCM       H1              6.9530778267        6.9887687389       -1.9408676416  CLST      39              1.0000000000
       193        39  DCM       H2              6.4175863937        5.3716630663       -1.2722031411  CLST      39              1.0000000000
       194        39  DCM       CL1             5.5583816404        7.2152115017       -0.0142438564  CLST      39              1.0000000000
       195        39  DCM       CL2             4.7743392058        6.3658885028       -2.6980999099  CLST      39              1.0000000000
       196        40  DCM       C              -3.9534539084       -7.3286664037        3.1200702777  CLST      40              1.0000000000
       197        40  DCM       H1             -4.8365461575       -6.9628008048        3.6811205038  CLST      40              1.0000000000
       198        40  DCM       H2             -3.0118359522       -7.1267556030        3.6747989779  CLST      40              1.0000000000
       199        40  DCM       CL1            -4.1142332092       -9.0905393187        2.8693115155  CLST      40              1.0000000000
       200        40  DCM       CL2            -3.8843671312       -6.4928211357        1.5426545137  CLST      40              1.0000000000
       201        41  DCM       C             -12.4872857328       -7.4649583112       -0.5318937607  CLST      41              1.0000000000
       202        41  DCM       H1            -12.0305674554       -8.4764264996       -0.5538288648  CLST      41              1.0000000000
       203        41  DCM       H2            -13.4728470960       -7.4815552481       -0.0207644738  CLST      41              1.0000000000
       204        41  DCM       CL1           -11.3981691527       -6.3561712359        0.3497315484  CLST      41              1.0000000000
       205        41  DCM       CL2           -12.7093273799       -6.8870844195       -2.2086338736  CLST      41              1.0000000000
       206        42  DCM       C              -1.8799056157        9.5714339490       12.6407308360  CLST      42              1.0000000000
       207        42  DCM       H1             -0.9854429833        9.7856933162       13.2621339683  CLST      42              1.0000000000
       208        42  DCM       H2             -1.6274750041        9.5848116206       11.5594435683  CLST      42              1.0000000000
       209        42  DCM       CL1            -2.5076638381        7.9560934655       13.0764873359  CLST      42              1.0000000000
       210        42  DCM       CL2            -3.1251501325       10.8129909147       12.9648642694  CLST      42              1.0000000000
       211        43  DCM       C              -0.2522565404       13.1105569583       13.8560384336  CLST      43              1.0000000000
       212        43  DCM       H1              0.3738755899       13.9922711910       14.1095061207  CLST      43              1.0000000000
       213        43  DCM       H2             -1.2936472746       13.4149114436       13.6196220187  CLST      43              1.0000000000
       214        43  DCM       CL1             0.4506013358       12.2890171556       12.4326127103  CLST      43              1.0000000000
       215        43  DCM       CL2            -0.2778124623       11.9921245634       15.2501501607  CLST      43              1.0000000000
       216        44  DCM       C               2.3266015688       -2.4477839900        6.5727023743  CLST      44              1.0000000000
       217        44  DCM       H1              3.2666876196       -2.8849074775        6.9731223676  CLST      44              1.0000000000
       218        44  DCM       H2              2.2001538047       -1.3991786286        6.9180353683  CLST      44              1.0000000000
       219        44  DCM       CL1             2.3908132844       -2.4688761499        4.7889669846  CLST      44              1.0000000000
       220        44  DCM       CL2             0.9390514000       -3.4234809521        7.1353711232  CLST      44              1.0000000000
       221        45  DCM       C              -7.2923464368        8.3093127764       -4.5321215460  CLST      45              1.0000000000
       222        45  DCM       H1             -6.4790077356        7.9509695606       -5.1982401569  CLST      45              1.0000000000
       223        45  DCM       H2             -8.0503919134        8.8856657114       -5.1019730375  CLST      45              1.0000000000
       224        45  DCM       CL1            -8.0863921717        6.8975822287       -3.7755724695  CLST      45              1.0000000000
       225        45  DCM       CL2            -6.5927066184        9.3636077698       -3.2683912348  CLST      45              1.0000000000
       226        46  DCM       C               9.9353058259       -1.1678816183        2.4839500942  CLST      46              1.0000000000
       227        46  DCM       H1              9.1891708447       -0.3758122560        2.2592435698  CLST      46              1.0000000000
       228        46  DCM       H2             10.2956142514       -1.6488043613        1.5507325706  CLST      46              1.0000000000
       229        46  DCM       CL1            11.3195729062       -0.4334796075        3.3420096014  CLST      46              1.0000000000
       230        46  DCM       CL2             9.1749786986       -2.4045652948        3.5233314899  CLST      46              1.0000000000
       231        47  DCM       C              -2.5284022077       -4.5671152262       -5.0258914323  CLST      47              1.0000000000
       232        47  DCM       H1             -3.2630058177       -4.4967479579       -4.1953188107  CLST      47              1.0000000000
       233        47  DCM       H2             -2.8189951415       -5.3604078190       -5.7479102975  CLST      47              1.0000000000
       234        47  DCM       CL1            -2.4621063129       -2.9987909227       -5.8781410461  CLST      47              1.0000000000
       235        47  DCM       CL2            -0.9237369614       -4.9589508456       -4.3470626331  CLST      47              1.0000000000
       236        48  DCM       C               2.2315394613       -3.0265597631       -4.4676884898  CLST      48              1.0000000000
       237        48  DCM       H1              1.7325354111       -3.7684527521       -3.8096349023  CLST      48              1.0000000000
       238        48  DCM       H2              2.7692830984       -3.5281980276       -5.3010299295  CLST      48              1.0000000000
       239        48  DCM       CL1             0.9966057690       -1.9290799115       -5.1493429180  CLST      48              1.0000000000
       240        48  DCM       CL2             3.4032814938       -2.0919172233       -3.4972221073  CLST      48              1.0000000000
       241        49  DCM       C              -7.4409549127       -5.6973598386        2.2206611410  CLST      49              1.0000000000
       242        49  DCM       H1             -8.3672057671       -5.2486019897        1.8037051655  CLST      49              1.0000000000
       243        49  DCM       H2             -6.7762393049       -6.0566029087        1.4065975490  CLST      49              1.0000000000
       244        49  DCM       CL1            -6.5752506917       -4.4697078189        3.1881713985  CLST      49              1.0000000000
       245        49  DCM       CL2            -7.8808380087       -7.0784283809        3.2599426950  CLST      49              1.0000000000
       246        50  DCM       C               2.6495111359        5.9032480973      -15.3715680386  CLST      50              1.0000000000
       247        50  DCM       H1              2.9330008334        5.8580281803      -14.2981614776  CLST      50              1.0000000000
       248        50  DCM       H2              3.2286960627        6.6836125916      -15.8996203375  CLST      50              1.0000000000
       249        50  DCM       CL1             2.9798599145        4.3118809367      -16.1224748680  CLST      50              1.0000000000
       250        50  DCM       CL2             0.9068877216        6.2880476232      -15.4966774124  CLST      50              1.0000000000
       251        51  DCM       C             -14.9856327239       -4.3746440540        1.7718795041  CLST      51              1.0000000000
       252        51  DCM       H1            -14.5953634573       -3.3837735591        2.0866698108  CLST      51              1.0000000000
       253        51  DCM       H2            -16.0764310165       -4.4522691813        1.9650223204  CLST      51              1.0000000000
       254        51  DCM       CL1           -14.6905433800       -4.5859352158        0.0216256374  CLST      51              1.0000000000
       255        51  DCM       CL2           -14.1380677237       -5.6538034464        2.6890578008  CLST      51              1.0000000000
       256        52  DCM       C               7.2650401611       -2.4322727148       -3.6342030017  CLST      52              1.0000000000
       257        52  DCM       H1              6.4486693933       -1.9802836992       -3.0285262754  CLST      52              1.0000000000
       258        52  DCM       H2              7.9260541183       -3.0616026975       -3.0025148536  CLST      52              1.0000000000
       259        52  DCM       CL1             8.2335226638       -1.1236922933       -4.3669479326  CLST      52              1.0000000000
       260        52  DCM       CL2             6.5422020037       -3.4438623969       -4.9189747159  CLST      52              1.0000000000
       261        53  DCM       C               5.9605428106       -1.0371398841        0.5770963175  CLST      53              1.0000000000
       262        53  DCM       H1              5.3895665114       -0.1321216389        0.2859358979  CLST      53              1.0000000000
       263        53  DCM       H2              5.3978106251       -1.9602417888        0.3235466364  CLST      53              1.0000000000
       264        53  DCM       CL1             7.5278916818       -1.0397801310       -0.2822965759  CLST      53              1.0000000000
       265        53  DCM       CL2             6.2383414090       -0.9853432397        2.3396174681  CLST      53              1.0000000000
       266        54  DCM       C              -2.8145078357        5.6361620971       -9.9695120664  CLST      54              1.0000000000
       267        54  DCM       H1             -2.3441929160        6.6399318675      -10.0325902378  CLST      54              1.0000000000
       268        54  DCM       H2             -3.9182620386        5.7173533623       -9.8758961147  CLST      54              1.0000000000
       269        54  DCM       CL1            -2.1729477832        4.7872374726       -8.5342735704  CLST      54              1.0000000000
       270        54  DCM       CL2            -2.4210541347        4.7095754871      -11.4482890777  CLST      54              1.0000000000
       271        55  DCM       C               2.3816815638       -5.4815759949       13.0086728106  CLST      55              1.0000000000
       272        55  DCM       H1              2.2874957008       -5.6123512636       14.1062523814  CLST      55              1.0000000000
       273        55  DCM       H2              2.2321395799       -6.4447475847       12.4761610307  CLST      55              1.0000000000
       274        55  DCM       CL1             1.1448049856       -4.3147824017       12.4548021114  CLST      55              1.0000000000
       275        55  DCM       CL2             4.0150223529       -4.8612552428       12.6256144132  CLST      55              1.0000000000
       276        56  DCM       C              -7.8443495964        1.3177389520       -7.7626059353  CLST      56              1.0000000000
       277        56  DCM       H1             -6.9383944463        1.7759746794       -7.3145890121  CLST      56              1.0000000000
       278        56  DCM       H2             -7.9610133588        1.6237276305       -8.8238778990  CLST      56              1.0000000000
       279        56  DCM       CL1            -7.6929503283       -0.4615078453       -7.6842422259  CLST      56              1.0000000000
       280        56  DCM       CL2            -9.2817605146        1.8487073553       -6.8415603209  CLST      56              1.0000000000
       281        57  DCM       C              -0.6102951470       -9.5651869527        1.7987898980  CLST      57              1.0000000000
       282        57  DCM       H1             -1.4611847265      -10.2772409201        1.7487874795  CLST      57              1.0000000000
       283        57  DCM       H2              0.3464419306      -10.0689421235        1.5433821442  CLST      57              1.0000000000
       284        57  DCM       CL1            -0.8927289903       -8.2396195606        0.6340650068  CLST      57              1.0000000000
       285        57  DCM       CL2            -0.5014958042       -8.9067098894        3.4572122869  CLST      57              1.0000000000
       286        58  DCM       C              11.1496203146       -2.4413212842        8.1515313599  CLST      58              1.0000000000
       287        58  DCM       H1             10.9531293146       -3.5327971529        8.2363532636  CLST      58              1.0000000000
       288        58  DCM       H2             11.9327361314       -2.1206388890        8.8703827835  CLST      58              1.0000000000
       289        58  DCM       CL1             9.6405026537       -1.5529150691        8.5012241138  CLST      58              1.0000000000
       290        58  DCM       CL2            11.6962979581       -2.0727824918        6.4907695064  CLST      58              1.0000000000
       291        59  DCM       C               9.0651503550        2.2105254832       -3.5858789800  CLST      59              1.0000000000
       292        59  DCM       H1              9.5089532428        1.2445745858       -3.2626465522  CLST      59              1.0000000000
       293        59  DCM       H2              8.2795565150        2.0507198054       -4.3574153607  CLST      59              1.0000000000
       294        59  DCM       CL1            10.3551945595        3.2397139014       -4.2661000194  CLST      59              1.0000000000
       295        59  DCM       CL2             8.3398013730        3.0127001534       -2.1679487479  CLST      59              1.0000000000
       296        60  DCM       C              10.3183266647        5.5836666878       -0.6450009182  CLST      60              1.0000000000
       297        60  DCM       H1             11.1503132072        6.1701003228       -0.2022165079  CLST      60              1.0000000000
       298        60  DCM       H2             10.6068618550        4.5211555508       -0.7787667293  CLST      60              1.0000000000
       299        60  DCM       CL1             9.8990373535        6.2707598352       -2.2379426777  CLST      60              1.0000000000
       300        60  DCM       CL2             8.9051055309        5.6642526678        0.4418696333  CLST      60              1.0000000000
       301        61  DCM       C              -2.5763818650        6.4931836723       -4.4825703678  CLST      61              1.0000000000
       302        61  DCM       H1             -1.8238757922        6.8609346314       -3.7541867762  CLST      61              1.0000000000
       303        61  DCM       H2             -2.3657873531        5.4424291174       -4.7722665699  CLST      61              1.0000000000
       304        61  DCM       CL1            -4.1980993042        6.5769277469       -3.7405091642  CLST      61              1.0000000000
       305        61  DCM       CL2            -2.5316576611        7.5257642186       -5.9409314996  CLST      61              1.0000000000
       306        62  DCM       C              -9.7633669817       -0.0376692530        2.9941709239  CLST      62              1.0000000000
       307        62  DCM       H1            -10.8051189036       -0.2505169339        3.3131418159  CLST      62              1.0000000000
       308        62  DCM       H2             -9.7381672201        0.3738192716        1.9637407719  CLST      62              1.0000000000
       309        62  DCM       CL1            -9.0445154795        1.1580424482        4.1114946129  CLST      62              1.0000000000
       310        62  DCM       CL2            -8.8181131118       -1.5550047030        3.0369083898  CLST      62              1.0000000000
       311        63  DCM       C              -4.9952471114        8.5014514989       10.3375589348  CLST      63              1.0000000000
       312        63  DCM       H1             -4.8956021456        9.0446963251       11.3025907892  CLST      63              1.0000000000
       313        63  DCM       H2             -5.9434052582        8.7665675483        9.8274263886  CLST      63              1.0000000000
       314        63  DCM       CL1            -3.6200694278        8.9335675831        9.2801477712  CLST      63              1.0000000000
       315        63  DCM       CL2            -4.9811446349        6.7435089124       10.6594491937  CLST      63              1.0000000000
       316        64  DCM       C               7.9134373602        5.8478718651       -5.1228346095  CLST      64              1.0000000000
       317        64  DCM       H1              7.5670164349        5.2656981677       -4.2422616792  CLST      64              1.0000000000
       318        64  DCM       H2              9.0156711827        5.7657241918       -5.2438698876  CLST      64              1.0000000000
       319        64  DCM       CL1             7.4877682375        7.5674887261       -4.8819608194  CLST      64              1.0000000000
       320        64  DCM       CL2             7.1199035704        5.2207925980       -6.5936962818  CLST      64              1.0000000000
       321        65  DCM       C               3.9945929085       -5.3508547222       -1.0808489977  CLST      65              1.0000000000
       322        65  DCM       H1              3.7298710320       -5.9912879896       -1.9485932684  CLST      65              1.0000000000
       323        65  DCM       H2              4.1626144668       -5.9631047490       -0.1689948762  CLST      65              1.0000000000
       324        65  DCM       CL1             5.4894460510       -4.4491993740       -1.4555205396  CLST      65              1.0000000000
       325        65  DCM       CL2             2.6609992802       -4.2072839640       -0.7647035298  CLST      65              1.0000000000
       326        66  DCM       C              -1.0085603300        4.8584090277       -0.5985482855  CLST      66              1.0000000000
       327        66  DCM       H1             -1.4809619454        3.9187895659       -0.2420291078  CLST      66              1.0000000000
       328        66  DCM       H2             -0.2270916649        5.2073465475        0.1073758841  CLST      66              1.0000000000
       329        66  DCM       CL1            -0.2560669361        4.5708775466       -2.1930258523  CLST      66              1.0000000000
       330        66  DCM       CL2            -2.2634738563        6.1206567614       -0.7414639804  CLST      66              1.0000000000
       331        67  DCM       C              13.9444534344        4.2164023339       -0.2156779675  CLST      67              1.0000000000
       332        67  DCM       H1             13.2033456669        4.7737480620        0.3920307038  CLST      67              1.0000000000
       333        67  DCM       H2             14.2193013775        3.2557519243        0.2690144700  CLST      67              1.0000000000
       334        67  DCM       CL1            13.2470099996        3.8752451134       -1.8272449912  CLST      67              1.0000000000
       335        67  DCM       CL2            15.4168760033        5.2148250507       -0.3936784295  CLST      67              1.0000000000
       336        68  DCM       C              -1.6593078623        0.6597048621       -5.6702092359  CLST      68              1.0000000000
       337        68  DCM       H1             -0.6362888056        0.4769945323       -6.0604082314  CLST      68              1.0000000000
       338        68  DCM       H2             -2.4051910899        0.0318726428       -6.2011886792  CLST      68              1.0000000000
       339        68  DCM       CL1            -1.6888768303        0.2543281086       -3.9348959827  CLST      68              1.0000000000
       340        68  DCM       CL2            -2.0723452831        2.3817635334       -5.8987266955  CLST      68              1.0000000000
       341        69  DCM       C               4.8951486488        2.6549232909       -2.6346922279  CLST      69              1.0000000000
       342        69  DCM       H1              5.4807824169        3.2449779173       -1.8997593995  CLST      69              1.0000000000
       343        69  DCM       H2              3.8082935371        2.8127318233       -2.4776577616  CLST      69              1.0000000000
       344        69  DCM       CL1             5.2787712664        0.9217948557       -2.4397746457  CLST      69              1.0000000000
       345        69  DCM       CL2             5.3271184329        3.1817343741       -4.2832243310  CLST      69              1.0000000000
       346        70  DCM       C              -3.3816514229       13.0547655464       10.0468220690  CLST      70              1.0000000000
       347        70  DCM       H1             -4.0822106566       12.3282315467       10.5006866108  CLST      70              1.0000000000
       348        70  DCM       H2             -3.8324085339       13.5583005558        9.1682973528  CLST      70              1.0000000000
       349        70  DCM       CL1            -2.9531334573       14.2830754938       11.2766218417  CLST      70              1.0000000000
       350        70  DCM       CL2            -1.9048911821       12.1817824321        9.5367487143  CLST      70              1.0000000000
       351        71  DCM       C               0.4106182014        1.9765210244      -12.2754875760  CLST      71              1.0000000000
       352        71  DCM       H1              1.2340828247        2.3053960402      -11.6070676852  CLST      71              1.0000000000
       353        71  DCM       H2             -0.5782917443        2.1173053642      -11.7905765405  CLST      71              1.0000000000
       354        71  DCM       CL1             0.6337892555        0.2450881938      -12.6562116766  CLST      71              1.0000000000
       355        71  DCM       CL2             0.4555097431        2.9422779594      -13.7772940122  CLST      71              1.0000000000
       356        72  DCM       C              -0.6252932832       -2.8166080451       -1.2747606730  CLST      72              1.0000000000
       357        72  DCM       H1             -0.0109422686       -1.9284249961       -1.5376762954  CLST      72              1.0000000000
       358        72  DCM       H2             -0.1915693697       -3.7433514605       -1.7099952926  CLST      72              1.0000000000
       359        72  DCM       CL1            -0.6901455324       -2.9897720998        0.5020271162  CLST      72              1.0000000000
       360        72  DCM       CL2            -2.2758495487       -2.5958185011       -1.9154306775  CLST      72              1.0000000000
       361        73  DCM       C              -2.3620715386        8.9648697858        4.0282305978  CLST      73              1.0000000000
       362        73  DCM       H1             -2.2245963456       10.0652045754        4.0820611351  CLST      73              1.0000000000
       363        73  DCM       H2             -1.7842914233        8.5322585095        3.1840901403  CLST      73              1.0000000000
       364        73  DCM       CL1            -1.8050553755        8.2323346022        5.5610648622  CLST      73              1.0000000000
       365        73  DCM       CL2            -4.0947468378        8.6069870330        3.7861487233  CLST      73              1.0000000000
       366        74  DCM       C              -5.6337237801       -3.6971187408       -0.6957467366  CLST      74              1.0000000000
       367        74  DCM       H1             -4.8399246649       -2.9619688557       -0.4407561734  CLST      74              1.0000000000
       368        74  DCM       H2             -5.4264794620       -4.6827818892       -0.2301364446  CLST      74              1.0000000000
       369        74  DCM       CL1            -7.2019788643       -3.0868819250       -0.0990390915  CLST      74              1.0000000000
       370        74  DCM       CL2            -5.6978045427       -3.8919576616       -2.4695627494  CLST      74              1.0000000000
       371        75  DCM       C              12.4463453131       -1.3439686697       -2.6327865199  CLST      75              1.0000000000
       372        75  DCM       H1             13.2166053515       -1.3715526309       -1.8296813708  CLST      75              1.0000000000
       373        75  DCM       H2             12.6862625983       -2.0635881613       -3.4418400903  CLST      75              1.0000000000
       374        75  DCM       CL1            10.8599042073       -1.7664428090       -1.9281754237  CLST      75              1.0000000000
       375        75  DCM       CL2            12.3820424891        0.3045474269       -3.3201032333  CLST      75              1.0000000000
       376        76  DCM       C              -5.0820987906       -0.8010586334       -3.9471728174  CLST      76              1.0000000000
       377        76  DCM       H1             -4.1479355896       -1.3496627270       -4.1849885781  CLST      76              1.0000000000
       378        76  DCM       H2             -5.9716444974       -1.4463287276       -4.1065683257  CLST      76              1.0000000000
       379        76  DCM       CL1            -5.2091434531        0.6310848821       -5.0047388457  CLST      76              1.0000000000
       380        76  DCM       CL2            -5.0302659382       -0.2893852726       -2.2366457980  CLST      76              1.0000000000
       381        77  DCM       C              -2.2261974349       -8.9826271023       -6.1123346502  CLST      77              1.0000000000
       382        77  DCM       H1             -2.8048964286       -8.1004963554       -6.4591865518  CLST      77              1.0000000000
       383        77  DCM       H2             -1.5332423743       -9.3423499248       -6.9023936340  CLST      77              1.0000000000
       384        77  DCM       CL1            -1.2761941504       -8.5237645889       -4.6701593701  CLST      77              1.0000000000
       385        77  DCM       CL2            -3.3663447130      -10.2958044736       -5.6956930232  CLST      77              1.0000000000
       386        78  DCM       C              -1.3486055437        4.9779783986        3.5845835118  CLST      78              1.0000000000
       387        78  DCM       H1             -0.9438091659        3.9459009295        3.5280441174  CLST      78              1.0000000000
       388        78  DCM       H2             -1.5640260625        5.2671327284        4.6346489364  CLST      78              1.0000000000
       389        78  DCM       CL1            -0.1487514926        6.1142051960        2.9014075347  CLST      78              1.0000000000
       390        78  DCM       CL2            -2.8624894335        5.0592504914        2.6397069337  CLST      78              1.0000000000
       391        79  DCM       C               8.9641974878      -17.5141559404       -5.7115857469  CLST      79              1.0000000000
       392        79  DCM       H1              9.0495858679      -18.6011885404       -5.5009511171  CLST      79              1.0000000000
       393        79  DCM       H2              9.9635421887      -17.0295117244       -5.7267543574  CLST      79              1.0000000000
       394        79  DCM       CL1             8.1851613395      -17.2899752351       -7.3053107668  CLST      79              1.0000000000
       395        79  DCM       CL2             7.9680690221      -16.7515448682       -4.4375869673  CLST      79              1.0000000000
       396        80  DCM       C              -3.9984591816        1.6866383510       -9.8714510349  CLST      80              1.0000000000
       397        80  DCM       H1             -3.0206462597        2.2076633823       -9.7994550296  CLST      80              1.0000000000
       398        80  DCM       H2             -4.0519045902        1.0639090129      -10.7892685272  CLST      80              1.0000000000
       399        80  DCM       CL1            -4.1991467960        0.6346180687       -8.4432707495  CLST      80              1.0000000000
       400        80  DCM       CL2            -5.3084064507        2.9020075059       -9.9119285378  CLST      80              1.0000000000
       401        81  DCM       C              -7.8945546999        8.5494974493        4.1800977149  CLST      81              1.0000000000
       402        81  DCM       H1             -8.5099141028        7.7843652423        3.6623730839  CLST      81              1.0000000000
       403        81  DCM       H2             -6.9686800614        8.0966991012        4.5932535970  CLST      81              1.0000000000
       404        81  DCM       CL1            -7.4491838257        9.8289258305        3.0145897961  CLST      81              1.0000000000
       405        81  DCM       CL2            -8.8485477210        9.2574952310        5.5148712915  CLST      81              1.0000000000
       406        82  DCM       C               0.7405392429       15.2884337760       10.2867076074  CLST      82              1.0000000000
       407        82  DCM       H1              0.0569682486       14.4263584408       10.1470812137  CLST      82              1.0000000000
       408        82  DCM       H2              0.6626531951       16.0048278613        9.4428209488  CLST      82              1.0000000000
       409        82  DCM       CL1             0.3106262646       16.1265501224       11.8074140420  CLST      82              1.0000000000
       410        82  DCM       CL2             2.4207715607       14.6833593695       10.3841460719  CLST      82              1.0000000000
       411        83  DCM       C              -2.2288338579        0.7000598952        0.1512624519  CLST      83              1.0000000000
       412        83  DCM       H1             -3.0596651169        1.1108806313       -0.4588526199  CLST      83              1.0000000000
       413        83  DCM       H2             -2.3540407308       -0.3924130867        0.3087699982  CLST      83              1.0000000000
       414        83  DCM       CL1            -0.6886214891        0.9915077859       -0.6986551401  CLST      83              1.0000000000
       415        83  DCM       CL2            -2.1999015073        1.5218761906        1.7373378882  CLST      83              1.0000000000
       416        84  DCM       C               9.1644881736        1.1651254191        5.6493872303  CLST      84              1.0000000000
       417        84  DCM       H1              9.4297951531        0.0880199244        5.7060026061  CLST      84              1.0000000000
       418        84  DCM       H2             10.0590524675        1.7855933281        5.4381729642  CLST      84              1.0000000000
       419        84  DCM       CL1             7.9707170784        1.4036037153        4.3406120277  CLST      84              1.0000000000
       420        84  DCM       CL2             8.4566535829        1.6718728652        7.2105459388  CLST      84              1.0000000000
       421        85  DCM       C               6.6909971076       -1.8935494999        6.4878218091  CLST      85              1.0000000000
       422        85  DCM       H1              6.9522214206       -2.3555174313        7.4644279294  CLST      85              1.0000000000
       423        85  DCM       H2              7.5881811182       -1.4565655947        6.0014589744  CLST      85              1.0000000000
       424        85  DCM       CL1             5.4849383717       -0.6037796526        6.7550752333  CLST      85              1.0000000000
       425        85  DCM       CL2             6.0048299599       -3.1472343728        5.4210468686  CLST      85              1.0000000000
       426        86  DCM       C               4.7000846799       -1.3951569770       10.8977048514  CLST      86              1.0000000000
       427        86  DCM       H1              4.4367960064       -0.3195328260       10.8117682268  CLST      86              1.0000000000
       428        86  DCM       H2              4.6326987703       -1.7425881564       11.9501493331  CLST      86              1.0000000000
       429        86  DCM       CL1             3.5674793139       -2.3510538088        9.8999068114  CLST      86              1.0000000000
       430        86  DCM       CL2             6.3721055379       -1.6311313481       10.3118799146  CLST      86              1.0000000000
       431        87  DCM       C              -5.0191369540        6.5754427539        6.8843102695  CLST      87              1.0000000000
       432        87  DCM       H1             -4.4476611000        7.4906627742        6.6229991647  CLST      87              1.0000000000
       433        87  DCM       H2             -4.5273838967        6.0234361694        7.7133788700  CLST      87              1.0000000000
       434        87  DCM       CL1            -6.6657654168        7.0467942865        7.3923058941  CLST      87              1.0000000000
       435        87  DCM       CL2            -5.1101301198        5.5137368434        5.4507449452  CLST      87              1.0000000000
       436        88  DCM       C               6.3041724499       -4.6096607295        2.0794723897  CLST      88              1.0000000000
       437        88  DCM       H1              6.6778952870       -4.0586594687        1.1928892375  CLST      88              1.0000000000
       438        88  DCM       H2              6.8914768574       -4.3422588656        2.9821451602  CLST      88              1.0000000000
       439        88  DCM       CL1             4.5899836812       -4.1800247770        2.3411206475  CLST      88              1.0000000000
       440        88  DCM       CL2             6.4522333917       -6.3662740548        1.7865616634  CLST      88              1.0000000000
       441        89  DCM       C              -1.1116259130       -6.9613656187        8.3120646104  CLST      89              1.0000000000
       442        89  DCM       H1             -2.1096692578       -6.4774679420        8.3338045243  CLST      89              1.0000000000
       443        89  DCM       H2             -0.3336160396       -6.2568924589        7.9457019559  CLST      89              1.0000000000
       444        89  DCM       CL1            -0.6865868667       -7.4909373264        9.9665894567  CLST      89              1.0000000000
       445        89  DCM       CL2            -1.1738128506       -8.3761142167        7.2209167217  CLST      89              1.0000000000
       446        90  DCM       C               1.9785341167       -0.8658985334        1.4655175891  CLST      90              1.0000000000
       447        90  DCM       H1              2.1046069097       -1.9334251662        1.7476737196  CLST      90              1.0000000000
       448        90  DCM       H2              0.9158380212       -0.5522413690        1.5507729081  CLST      90              1.0000000000
       449        90  DCM       CL1             2.5170953028       -0.6428298217       -0.2224177526  CLST      90              1.0000000000
       450        90  DCM       CL2             2.9681724525        0.1461445075        2.5539550839  CLST      90              1.0000000000
       451        91  DCM       C              -6.3141942512      -11.9615108432       -2.4367026112  CLST      91              1.0000000000
       452        91  DCM       H1             -7.2451284024      -12.5429066220       -2.5848056974  CLST      91              1.0000000000
       453        91  DCM       H2             -6.0741280430      -11.8519614421       -1.3589151856  CLST      91              1.0000000000
       454        91  DCM       CL1            -4.9643237066      -12.8095224936       -3.2493166209  CLST      91              1.0000000000
       455        91  DCM       CL2            -6.5244550209      -10.3357604692       -3.1529444528  CLST      91              1.0000000000
       456        92  DCM       C               2.3859651429        2.9488991718        0.2357846260  CLST      92              1.0000000000
       457        92  DCM       H1              1.8732253782        2.5334154925       -0.6572478910  CLST      92              1.0000000000
       458        92  DCM       H2              3.2454896543        2.3140245753        0.5357131122  CLST      92              1.0000000000
       459        92  DCM       CL1             2.9807987740        4.5881320694       -0.1440825362  CLST      92              1.0000000000
       460        92  DCM       CL2             1.2206994218        3.0299569098        1.5871133600  CLST      92              1.0000000000
       461        93  DCM       C               8.2037092014       -6.0986132774        5.6602316985  CLST      93              1.0000000000
       462        93  DCM       H1              7.5284095905       -6.1503865870        6.5396160363  CLST      93              1.0000000000
       463        93  DCM       H2              7.6583567003       -5.7525258161        4.7574475891  CLST      93              1.0000000000
       464        93  DCM       CL1             9.5263182726       -4.9527546677        6.0121318108  CLST      93              1.0000000000
       465        93  DCM       CL2             8.8737965931       -7.7242412141        5.3436995698  CLST      93              1.0000000000
       466        94  DCM       C              -3.7835424686       -9.1373279405       11.0000405617  CLST      94              1.0000000000
       467        94  DCM       H1             -2.9220942803       -8.8532106488       11.6419692555  CLST      94              1.0000000000
       468        94  DCM       H2             -4.5835743922       -9.6250769641       11.5970017803  CLST      94              1.0000000000
       469        94  DCM       CL1            -4.4462145600       -7.6653184092       10.2327964443  CLST      94              1.0000000000
       470        94  DCM       CL2            -3.2220054532      -10.2792129612        9.7445077365  CLST      94              1.0000000000
       471        95  DCM       C              -5.1992648576        4.1832659323       -6.2562758855  CLST      95              1.0000000000
       472        95  DCM       H1             -4.2698853387        4.2862406779       -5.6597059403  CLST      95              1.0000000000
       473        95  DCM       H2             -5.1250644206        3.3251447295       -6.9559063878  CLST      95              1.0000000000
       474        95  DCM       CL1            -6.5703526713        3.9208877012       -5.1431482299  CLST      95              1.0000000000
       475        95  DCM       CL2            -5.4609385318        5.6845386919       -7.1882640540  CLST      95              1.0000000000
       476        96  DCM       C              -4.8226574843       -8.6641289685        6.5628407331  CLST      96              1.0000000000
       477        96  DCM       H1             -3.9887380212       -9.1003259268        5.9710058549  CLST      96              1.0000000000
       478        96  DCM       H2             -4.8158940521       -9.0479239556        7.6027126360  CLST      96              1.0000000000
       479        96  DCM       CL1            -4.6483407217       -6.8850899271        6.6022270538  CLST      96              1.0000000000
       480        96  DCM       CL2            -6.3737129467       -9.1051315222        5.7916066863  CLST      96              1.0000000000
       481        97  DCM       C               0.3946646781       -0.0048394165       -8.8193415037  CLST      97              1.0000000000
       482        97  DCM       H1              1.0110777899       -0.1297742565       -7.9038534345  CLST      97              1.0000000000
       483        97  DCM       H2              0.9914717473       -0.2197359438       -9.7307333281  CLST      97              1.0000000000
       484        97  DCM       CL1            -0.9866555160       -1.1339643753       -8.7486055006  CLST      97              1.0000000000
       485        97  DCM       CL2            -0.2052481203        1.6761919775       -8.8924968423  CLST      97              1.0000000000
       486        98  DCM       C              -3.4006204433        9.5671465601       -1.4168499637  CLST      98              1.0000000000
       487        98  DCM       H1             -3.9571982015       10.4812258241       -1.7131581534  CLST      98              1.0000000000
       488        98  DCM       H2             -3.9867151593        8.6529703947       -1.6471738577  CLST      98              1.0000000000
       489        98  DCM       CL1            -1.8586892666        9.5052115660       -2.3185123072  CLST      98              1.0000000000
       490        98  DCM       CL2            -3.0759423265        9.6220621421        0.3405386791  CLST      98              1.0000000000
