* INITIAL
*  DATE:     6/28/26      2: 4:44      CREATED BY USER: boittier
*
       490  EXT
         1         1  DCM       C              10.0494374170       -0.4717611378       10.7014376711  CLST      1               1.0000000000
         2         1  DCM       H1             10.5081514409       -1.1755555698       11.4275542880  CLST      1               1.0000000000
         3         1  DCM       H2              9.7516498748       -0.9962874062        9.7696617312  CLST      1               1.0000000000
         4         1  DCM       CL1            11.2358752376        0.8046058283       10.2994746801  CLST      1               1.0000000000
         5         1  DCM       CL2             8.5972016406        0.2601680379       11.4424238910  CLST      1               1.0000000000
         6         2  DCM       C               8.1740479041        3.5921491823        4.7936246115  CLST      2               1.0000000000
         7         2  DCM       H1              8.7770381729        2.6615700401        4.7477778898  CLST      2               1.0000000000
         8         2  DCM       H2              7.7456006199        3.7432194898        5.8063368129  CLST      2               1.0000000000
         9         2  DCM       CL1             9.2225548182        4.9834930255        4.3996929076  CLST      2               1.0000000000
        10         2  DCM       CL2             6.8413646506        3.4789687028        3.6089888033  CLST      2               1.0000000000
        11         3  DCM       C             -10.7448097166       -7.8826765746       -0.1918119568  CLST      3               1.0000000000
        12         3  DCM       H1            -11.6716234132       -8.0714271011       -0.7745183785  CLST      3               1.0000000000
        13         3  DCM       H2            -10.5226606180       -8.7277450932        0.4929229803  CLST      3               1.0000000000
        14         3  DCM       CL1            -9.3776755227       -7.6819550564       -1.3259498496  CLST      3               1.0000000000
        15         3  DCM       CL2           -10.9581472482       -6.3932358859        0.7743449901  CLST      3               1.0000000000
        16         4  DCM       C               3.6462094267      -10.7353848414        2.1778947724  CLST      4               1.0000000000
        17         4  DCM       H1              4.5771542577      -10.5150202625        2.7421090463  CLST      4               1.0000000000
        18         4  DCM       H2              3.8579826668      -11.3531212122        1.2808819447  CLST      4               1.0000000000
        19         4  DCM       CL1             2.5216347290      -11.6320642519        3.2386295145  CLST      4               1.0000000000
        20         4  DCM       CL2             2.8989897290       -9.1950673510        1.6616449356  CLST      4               1.0000000000
        21         5  DCM       C               0.1804064762       -9.0295903806        3.9994633174  CLST      5               1.0000000000
        22         5  DCM       H1              0.0905060793       -9.4682828475        2.9828309198  CLST      5               1.0000000000
        23         5  DCM       H2              0.9565998906       -9.5582866648        4.5911475530  CLST      5               1.0000000000
        24         5  DCM       CL1             0.6347775803       -7.3071196941        3.8599093720  CLST      5               1.0000000000
        25         5  DCM       CL2            -1.3872250771       -9.1757300437        4.8420720128  CLST      5               1.0000000000
        26         6  DCM       C              -1.1154267294       -6.0678547702        6.7659019183  CLST      6               1.0000000000
        27         6  DCM       H1             -0.7191128168       -6.9729166318        7.2722352932  CLST      6               1.0000000000
        28         6  DCM       H2             -1.4442563638       -6.3018697292        5.7329552985  CLST      6               1.0000000000
        29         6  DCM       CL1            -2.5116036771       -5.4458658167        7.6910274401  CLST      6               1.0000000000
        30         6  DCM       CL2             0.1676627480       -4.8280965558        6.6868131899  CLST      6               1.0000000000
        31         7  DCM       C              -1.5286918090        2.4505470897       -5.4237739610  CLST      7               1.0000000000
        32         7  DCM       H1             -1.4299334418        3.2972246717       -6.1353833246  CLST      7               1.0000000000
        33         7  DCM       H2             -0.6099183622        1.8261645698       -5.4173459535  CLST      7               1.0000000000
        34         7  DCM       CL1            -1.8070281843        3.1046561132       -3.7855914333  CLST      7               1.0000000000
        35         7  DCM       CL2            -2.9158868735        1.4401125532       -5.9158957422  CLST      7               1.0000000000
        36         8  DCM       C              -2.0223417703       11.6233930265        7.4854532023  CLST      8               1.0000000000
        37         8  DCM       H1             -1.1448926780       11.7936255555        6.8262627505  CLST      8               1.0000000000
        38         8  DCM       H2             -1.8169055350       11.9701400471        8.5202739616  CLST      8               1.0000000000
        39         8  DCM       CL1            -3.4223481763       12.5267833499        6.8365839623  CLST      8               1.0000000000
        40         8  DCM       CL2            -2.3940825002        9.8746043475        7.5207619451  CLST      8               1.0000000000
        41         9  DCM       C               9.3960813210        0.7387783426       -2.8614492223  CLST      9               1.0000000000
        42         9  DCM       H1              8.6333104580       -0.0480776537       -2.6888726344  CLST      9               1.0000000000
        43         9  DCM       H2              9.0693846095        1.4443468497       -3.6531124930  CLST      9               1.0000000000
        44         9  DCM       CL1             9.6449513791        1.6437154561       -1.3429463671  CLST      9               1.0000000000
        45         9  DCM       CL2            10.9262748058       -0.0359391900       -3.3634768878  CLST      9               1.0000000000
        46        10  DCM       C               3.8396109640       -6.5164974353       -0.4592141255  CLST      10              1.0000000000
        47        10  DCM       H1              2.8091481672       -6.6415468561       -0.0631715160  CLST      10              1.0000000000
        48        10  DCM       H2              4.5388091976       -7.2421607449        0.0069830060  CLST      10              1.0000000000
        49        10  DCM       CL1             3.8200783188       -6.7961278940       -2.2213158606  CLST      10              1.0000000000
        50        10  DCM       CL2             4.4047880270       -4.8558512554       -0.1178163501  CLST      10              1.0000000000
        51        11  DCM       C               1.4715274694       -6.4475540299       10.8359728157  CLST      11              1.0000000000
        52        11  DCM       H1              1.3235674092       -5.6837748550       11.6285875550  CLST      11              1.0000000000
        53        11  DCM       H2              2.0682719871       -7.3051177172       11.2126776502  CLST      11              1.0000000000
        54        11  DCM       CL1            -0.1245837922       -7.0416223577       10.2912665376  CLST      11              1.0000000000
        55        11  DCM       CL2             2.3345222100       -5.6991336039        9.4636984019  CLST      11              1.0000000000
        56        12  DCM       C               9.9682643394        4.8345958827      -10.5404685846  CLST      12              1.0000000000
        57        12  DCM       H1              8.8626984541        4.8499642519      -10.4385417447  CLST      12              1.0000000000
        58        12  DCM       H2             10.2884943256        5.3094000627      -11.4921216337  CLST      12              1.0000000000
        59        12  DCM       CL1            10.6908870341        5.7310260396       -9.1723677793  CLST      12              1.0000000000
        60        12  DCM       CL2            10.5327032166        3.1377387669      -10.5186148848  CLST      12              1.0000000000
        61        13  DCM       C              -1.3762175692        5.3433410540        4.5943753731  CLST      13              1.0000000000
        62        13  DCM       H1             -2.1518088284        4.6710653754        5.0182963124  CLST      13              1.0000000000
        63        13  DCM       H2             -0.3585538996        5.0174303141        4.8940814439  CLST      13              1.0000000000
        64        13  DCM       CL1            -1.4941427702        5.3128652380        2.8127613440  CLST      13              1.0000000000
        65        13  DCM       CL2            -1.6561412613        7.0050607796        5.1894966837  CLST      13              1.0000000000
        66        14  DCM       C               1.6099078610       -2.8141794867        1.1631357493  CLST      14              1.0000000000
        67        14  DCM       H1              1.6353918243       -2.2967506999        0.1822735740  CLST      14              1.0000000000
        68        14  DCM       H2              2.6333590987       -2.9023400042        1.5820855937  CLST      14              1.0000000000
        69        14  DCM       CL1             0.5855433392       -1.8688750659        2.2779078789  CLST      14              1.0000000000
        70        14  DCM       CL2             0.9333825358       -4.4520465016        0.9603279559  CLST      14              1.0000000000
        71        15  DCM       C               7.5108423648       -6.0472400487       -1.8311722805  CLST      15              1.0000000000
        72        15  DCM       H1              6.5222772248       -5.5761000548       -2.0090436140  CLST      15              1.0000000000
        73        15  DCM       H2              8.2149076212       -5.7983528978       -2.6512614301  CLST      15              1.0000000000
        74        15  DCM       CL1             8.1763514816       -5.4505222666       -0.2832263427  CLST      15              1.0000000000
        75        15  DCM       CL2             7.3104638376       -7.8199882293       -1.7557079653  CLST      15              1.0000000000
        76        16  DCM       C              -0.6430227329       -3.1666850491        9.9597420186  CLST      16              1.0000000000
        77        16  DCM       H1             -1.4874084622       -3.1942272608       10.6766233396  CLST      16              1.0000000000
        78        16  DCM       H2             -0.4534074312       -4.1644127964        9.5222248188  CLST      16              1.0000000000
        79        16  DCM       CL1            -1.0379142578       -2.0209739208        8.6425433738  CLST      16              1.0000000000
        80        16  DCM       CL2             0.8316141147       -2.6162173702       10.8117788289  CLST      16              1.0000000000
        81        17  DCM       C              -9.5050590573       -4.2717658043       -2.3427411023  CLST      17              1.0000000000
        82        17  DCM       H1             -8.4781269609       -4.5002421149       -1.9897161604  CLST      17              1.0000000000
        83        17  DCM       H2            -10.2591967240       -4.5956895745       -1.5959830224  CLST      17              1.0000000000
        84        17  DCM       CL1            -9.6587502911       -2.5109144142       -2.5957192129  CLST      17              1.0000000000
        85        17  DCM       CL2            -9.7958647726       -5.1320990700       -3.8810065563  CLST      17              1.0000000000
        86        18  DCM       C              -5.1838127179       10.1099570517        4.7398509996  CLST      18              1.0000000000
        87        18  DCM       H1             -4.8682412277       11.1020674334        4.3550569513  CLST      18              1.0000000000
        88        18  DCM       H2             -4.8215034607        9.9484623299        5.7765039728  CLST      18              1.0000000000
        89        18  DCM       CL1            -6.9690762374       10.0264383524        4.7260276032  CLST      18              1.0000000000
        90        18  DCM       CL2            -4.5067155487        8.8377232624        3.6853829138  CLST      18              1.0000000000
        91        19  DCM       C               0.1524047517       -6.3734099328       -4.0205870622  CLST      19              1.0000000000
        92        19  DCM       H1             -0.9067773790       -6.1321871880       -4.2513795656  CLST      19              1.0000000000
        93        19  DCM       H2              0.3643655642       -7.4488219274       -4.1924273732  CLST      19              1.0000000000
        94        19  DCM       CL1             1.2205654246       -5.3923694391       -5.0611540819  CLST      19              1.0000000000
        95        19  DCM       CL2             0.4745559316       -6.0023698788       -2.3076565231  CLST      19              1.0000000000
        96        20  DCM       C               3.2790050560       -2.5595589052       -8.4770324899  CLST      20              1.0000000000
        97        20  DCM       H1              4.0963146900       -1.8105931345       -8.5364892256  CLST      20              1.0000000000
        98        20  DCM       H2              2.4473424595       -2.2940129770       -9.1631492246  CLST      20              1.0000000000
        99        20  DCM       CL1             3.9196238848       -4.1659747268       -8.9253337649  CLST      20              1.0000000000
       100        20  DCM       CL2             2.6580773454       -2.6104228238       -6.8043670179  CLST      20              1.0000000000
       101        21  DCM       C               9.0610587101        8.0804510481       -1.9782588278  CLST      21              1.0000000000
       102        21  DCM       H1              9.0637724866        7.0114260543       -1.6822457539  CLST      21              1.0000000000
       103        21  DCM       H2              9.6822808315        8.6871361322       -1.2854351794  CLST      21              1.0000000000
       104        21  DCM       CL1             9.7189100315        8.2222816917       -3.6342541660  CLST      21              1.0000000000
       105        21  DCM       CL2             7.3798283698        8.6850015861       -1.9382672636  CLST      21              1.0000000000
       106        22  DCM       C              -8.9798219171       -5.3246331699        4.9622759125  CLST      22              1.0000000000
       107        22  DCM       H1             -8.8052785967       -5.9819476596        5.8405447836  CLST      22              1.0000000000
       108        22  DCM       H2             -9.5105913188       -5.8689404669        4.1528684390  CLST      22              1.0000000000
       109        22  DCM       CL1            -9.9622746599       -3.9186216368        5.4679788856  CLST      22              1.0000000000
       110        22  DCM       CL2            -7.4037954882       -4.7619939981        4.3406019444  CLST      22              1.0000000000
       111        23  DCM       C              -2.1719236449       -8.1140891243        1.0870771876  CLST      23              1.0000000000
       112        23  DCM       H1             -2.2166973178       -7.8897564159        2.1728286250  CLST      23              1.0000000000
       113        23  DCM       H2             -2.8632540935       -7.4608411986        0.5144369224  CLST      23              1.0000000000
       114        23  DCM       CL1            -0.5034446035       -7.8452070888        0.5104132414  CLST      23              1.0000000000
       115        23  DCM       CL2            -2.6312481282       -9.8213479757        0.8335993840  CLST      23              1.0000000000
       116        24  DCM       C              -9.8375184287       -0.3175841009        8.2159752307  CLST      24              1.0000000000
       117        24  DCM       H1             -9.4331714017       -0.8791321897        7.3485052755  CLST      24              1.0000000000
       118        24  DCM       H2             -9.0297107408       -0.0781619220        8.9424718239  CLST      24              1.0000000000
       119        24  DCM       CL1           -10.5697086562        1.2053466010        7.6344218377  CLST      24              1.0000000000
       120        24  DCM       CL2           -11.0740268152       -1.3221161509        9.0235370541  CLST      24              1.0000000000
       121        25  DCM       C              -9.4533865898       -2.2936372795       -6.3719621086  CLST      25              1.0000000000
       122        25  DCM       H1            -10.0874772920       -1.9223865594       -7.2045527108  CLST      25              1.0000000000
       123        25  DCM       H2            -10.0761187140       -2.6310386632       -5.5185516852  CLST      25              1.0000000000
       124        25  DCM       CL1            -8.4705605611       -3.6699683659       -6.9484200653  CLST      25              1.0000000000
       125        25  DCM       CL2            -8.3867672922       -0.9722107405       -5.8181508305  CLST      25              1.0000000000
       126        26  DCM       C               8.8331078587       -1.7690889687       -8.5870542144  CLST      26              1.0000000000
       127        26  DCM       H1              9.3919830303       -2.2285271226       -9.4292466539  CLST      26              1.0000000000
       128        26  DCM       H2              9.0794563460       -2.2661849221       -7.6248370907  CLST      26              1.0000000000
       129        26  DCM       CL1             9.2697763342       -0.0382374150       -8.4754866741  CLST      26              1.0000000000
       130        26  DCM       CL2             7.0794271255       -1.9369251571       -8.8934042713  CLST      26              1.0000000000
       131        27  DCM       C              -4.5601635876       -7.0921044734        4.7526671676  CLST      27              1.0000000000
       132        27  DCM       H1             -4.8711202183       -6.1746200174        4.2122876405  CLST      27              1.0000000000
       133        27  DCM       H2             -3.4935362300       -7.0337566766        5.0482617316  CLST      27              1.0000000000
       134        27  DCM       CL1            -5.5600617731       -7.2704668349        6.2230858820  CLST      27              1.0000000000
       135        27  DCM       CL2            -4.7888424411       -8.5052523428        3.6840346515  CLST      27              1.0000000000
       136        28  DCM       C              -4.6887799664       11.7137621439       -2.2729680123  CLST      28              1.0000000000
       137        28  DCM       H1             -4.8185510070       12.1734083990       -1.2702148344  CLST      28              1.0000000000
       138        28  DCM       H2             -4.0265209734       10.8247111950       -2.2208555179  CLST      28              1.0000000000
       139        28  DCM       CL1            -3.9622513491       12.9164362101       -3.3781690987  CLST      28              1.0000000000
       140        28  DCM       CL2            -6.2887205771       11.2143318428       -2.8920079082  CLST      28              1.0000000000
       141        29  DCM       C               4.7738430417        6.8500781464        0.4614226428  CLST      29              1.0000000000
       142        29  DCM       H1              3.8552496800        7.0238381088       -0.1347984456  CLST      29              1.0000000000
       143        29  DCM       H2              5.6817724117        7.0367774961       -0.1492817686  CLST      29              1.0000000000
       144        29  DCM       CL1             4.7789431671        7.9603492704        1.8606151972  CLST      29              1.0000000000
       145        29  DCM       CL2             4.7905915271        5.1547813346        1.0291940171  CLST      29              1.0000000000
       146        30  DCM       C               5.1264923457       -5.7754210747       -5.8351814347  CLST      30              1.0000000000
       147        30  DCM       H1              5.7040695509       -5.3631427878       -6.6888988361  CLST      30              1.0000000000
       148        30  DCM       H2              4.0929992315       -6.0430912965       -6.1419377875  CLST      30              1.0000000000
       149        30  DCM       CL1             5.9546541997       -7.2369342402       -5.2256008526  CLST      30              1.0000000000
       150        30  DCM       CL2             5.0452636386       -4.5465595490       -4.5429324621  CLST      30              1.0000000000
       151        31  DCM       C               2.4164951259       -2.9051661877       -2.8849567532  CLST      31              1.0000000000
       152        31  DCM       H1              2.5526911325       -2.7909927466       -3.9796802171  CLST      31              1.0000000000
       153        31  DCM       H2              2.5766236265       -3.9580848285       -2.5712629770  CLST      31              1.0000000000
       154        31  DCM       CL1             0.7560871108       -2.4146860653       -2.4514791431  CLST      31              1.0000000000
       155        31  DCM       CL2             3.5986473525       -1.8669574912       -2.0440055546  CLST      31              1.0000000000
       156        32  DCM       C              -9.5418646488        3.8165067711       -4.0242687195  CLST      32              1.0000000000
       157        32  DCM       H1             -9.4242382181        4.7517517063       -4.6102781558  CLST      32              1.0000000000
       158        32  DCM       H2             -8.5719041933        3.4869266957       -3.5973827368  CLST      32              1.0000000000
       159        32  DCM       CL1           -10.6900460693        4.1054173291       -2.6864795510  CLST      32              1.0000000000
       160        32  DCM       CL2           -10.1687154307        2.5312091305       -5.0951997618  CLST      32              1.0000000000
       161        33  DCM       C              -6.7657450342       -2.2066091068        6.7344589211  CLST      33              1.0000000000
       162        33  DCM       H1             -7.5354889914       -2.1406578132        5.9373118892  CLST      33              1.0000000000
       163        33  DCM       H2             -5.8690369024       -2.7526157836        6.3765851995  CLST      33              1.0000000000
       164        33  DCM       CL1            -6.2885943648       -0.5539781929        7.2186667473  CLST      33              1.0000000000
       165        33  DCM       CL2            -7.4529696347       -3.0803173094        8.1334508994  CLST      33              1.0000000000
       166        34  DCM       C               3.1301117716       -7.6894600024        6.5860502084  CLST      34              1.0000000000
       167        34  DCM       H1              2.7504216103       -6.7225158198        6.1940188285  CLST      34              1.0000000000
       168        34  DCM       H2              3.9057776376       -7.5279044556        7.3639652269  CLST      34              1.0000000000
       169        34  DCM       CL1             1.7694645085       -8.6005731667        7.3023865572  CLST      34              1.0000000000
       170        34  DCM       CL2             3.8448664544       -8.6227294325        5.2408507615  CLST      34              1.0000000000
       171        35  DCM       C              -1.2587973523       -8.7014038128       -6.4514854574  CLST      35              1.0000000000
       172        35  DCM       H1             -2.2451584243       -8.3648588420       -6.0669488340  CLST      35              1.0000000000
       173        35  DCM       H2             -0.5032453337       -7.8924179807       -6.3773612849  CLST      35              1.0000000000
       174        35  DCM       CL1            -0.7055751107      -10.1069915368       -5.4946890722  CLST      35              1.0000000000
       175        35  DCM       CL2            -1.4262884393       -9.1630521119       -8.1689861142  CLST      35              1.0000000000
       176        36  DCM       C              10.7997615095       -7.5621332316       -3.3728938020  CLST      36              1.0000000000
       177        36  DCM       H1             11.1339138264       -8.5382025612       -2.9604131263  CLST      36              1.0000000000
       178        36  DCM       H2             10.3673097825       -6.9209984131       -2.5751929549  CLST      36              1.0000000000
       179        36  DCM       CL1            12.2021203379       -6.7233518621       -4.0961003230  CLST      36              1.0000000000
       180        36  DCM       CL2             9.5585719822       -7.8563486947       -4.6250163884  CLST      36              1.0000000000
       181        37  DCM       C               8.0779922539       -3.5038540289        3.4093145907  CLST      37              1.0000000000
       182        37  DCM       H1              8.6998414479       -2.7078791059        2.9491155991  CLST      37              1.0000000000
       183        37  DCM       H2              8.5872201512       -4.4893566026        3.3564696771  CLST      37              1.0000000000
       184        37  DCM       CL1             7.7744451379       -3.0920988298        5.1217384387  CLST      37              1.0000000000
       185        37  DCM       CL2             6.5273767813       -3.6056853248        2.5307438724  CLST      37              1.0000000000
       186        38  DCM       C              -9.8379444864       -3.0802088989        1.8883686023  CLST      38              1.0000000000
       187        38  DCM       H1             -9.4595586199       -2.3226587835        2.6043803089  CLST      38              1.0000000000
       188        38  DCM       H2            -10.3445834128       -3.9125193597        2.4196007308  CLST      38              1.0000000000
       189        38  DCM       CL1            -8.4606845746       -3.7311571480        0.9594670644  CLST      38              1.0000000000
       190        38  DCM       CL2           -11.0007460286       -2.3045597255        0.7782948097  CLST      38              1.0000000000
       191        39  DCM       C               8.7481891853        4.8683213880        0.5040989148  CLST      39              1.0000000000
       192        39  DCM       H1              8.0788364527        4.6318526006       -0.3499880077  CLST      39              1.0000000000
       193        39  DCM       H2              8.6769644390        4.0909207489        1.2931903675  CLST      39              1.0000000000
       194        39  DCM       CL1            10.4345651961        4.9507748029       -0.0813679915  CLST      39              1.0000000000
       195        39  DCM       CL2             8.2748742246        6.4457017443        1.1965878420  CLST      39              1.0000000000
       196        40  DCM       C               6.9491610658        0.3744153769        6.4917241231  CLST      40              1.0000000000
       197        40  DCM       H1              7.3555652998       -0.2660678151        5.6815479514  CLST      40              1.0000000000
       198        40  DCM       H2              7.4370892605        1.3707962942        6.4895655925  CLST      40              1.0000000000
       199        40  DCM       CL1             5.1915596400        0.5877511799        6.2494438981  CLST      40              1.0000000000
       200        40  DCM       CL2             7.2508451519       -0.4080628550        8.0687655092  CLST      40              1.0000000000
       201        41  DCM       C              -5.8622505413       -2.7875351530       -3.2956447846  CLST      41              1.0000000000
       202        41  DCM       H1             -5.0303713665       -3.4682737393       -3.5728985641  CLST      41              1.0000000000
       203        41  DCM       H2             -6.8111142690       -3.0925810783       -3.7874196676  CLST      41              1.0000000000
       204        41  DCM       CL1            -6.0798729290       -2.8260506084       -1.5228764865  CLST      41              1.0000000000
       205        41  DCM       CL2            -5.4500971605       -1.1304505575       -3.8137199889  CLST      41              1.0000000000
       206        42  DCM       C              -1.8337166523        8.6057200944        1.0265185295  CLST      42              1.0000000000
       207        42  DCM       H1             -2.3636220456        7.9829094265        1.7788058400  CLST      42              1.0000000000
       208        42  DCM       H2             -0.8740754354        8.9856590896        1.4311174885  CLST      42              1.0000000000
       209        42  DCM       CL1            -1.4986915443        7.6139154501       -0.4180099960  CLST      42              1.0000000000
       210        42  DCM       CL2            -2.8708764461        9.9886009903        0.5759003340  CLST      42              1.0000000000
       211        43  DCM       C              -6.0671825045        1.9521425316        4.4617937796  CLST      43              1.0000000000
       212        43  DCM       H1             -6.0583269198        0.8494740838        4.5848439914  CLST      43              1.0000000000
       213        43  DCM       H2             -5.1223516392        2.3999582439        4.8343948051  CLST      43              1.0000000000
       214        43  DCM       CL1            -6.2532111566        2.3439071431        2.7278521782  CLST      43              1.0000000000
       215        43  DCM       CL2            -7.4394607374        2.6235920960        5.3888432952  CLST      43              1.0000000000
       216        44  DCM       C               3.2125037471        3.3182148523       -6.9412676732  CLST      44              1.0000000000
       217        44  DCM       H1              3.3027056206        2.2447693901       -7.2056986699  CLST      44              1.0000000000
       218        44  DCM       H2              3.5097512332        3.9665937861       -7.7920915900  CLST      44              1.0000000000
       219        44  DCM       CL1             4.2714335847        3.6623998713       -5.5465224376  CLST      44              1.0000000000
       220        44  DCM       CL2             1.5173551561        3.6659532537       -6.5060280774  CLST      44              1.0000000000
       221        45  DCM       C              -3.8964842255       -9.2431697285       -2.5984223378  CLST      45              1.0000000000
       222        45  DCM       H1             -3.8424281597      -10.1587103213       -1.9718595245  CLST      45              1.0000000000
       223        45  DCM       H2             -4.6079402927       -8.5062867880       -2.1711451744  CLST      45              1.0000000000
       224        45  DCM       CL1            -2.2751455606       -8.4997371886       -2.6802378474  CLST      45              1.0000000000
       225        45  DCM       CL2            -4.4370191451       -9.6946102050       -4.2411067730  CLST      45              1.0000000000
       226        46  DCM       C              -0.6087245062       11.0080326766       -2.3269978356  CLST      46              1.0000000000
       227        46  DCM       H1             -0.6443307703       10.6610274645       -1.2736380150  CLST      46              1.0000000000
       228        46  DCM       H2             -1.5290004000       11.5654984833       -2.5940417574  CLST      46              1.0000000000
       229        46  DCM       CL1             0.8036514830       12.0817586379       -2.5402208441  CLST      46              1.0000000000
       230        46  DCM       CL2            -0.4577222644        9.5897265256       -3.4010656194  CLST      46              1.0000000000
       231        47  DCM       C               7.1574156996        3.1403353493        9.4157982234  CLST      47              1.0000000000
       232        47  DCM       H1              7.2505648024        3.9242611245       10.1973614503  CLST      47              1.0000000000
       233        47  DCM       H2              6.8494876465        2.1695880406        9.8585519787  CLST      47              1.0000000000
       234        47  DCM       CL1             5.9318977484        3.6493160291        8.2183318656  CLST      47              1.0000000000
       235        47  DCM       CL2             8.7383052789        2.9351743499        8.6099050098  CLST      47              1.0000000000
       236        48  DCM       C              -4.3170900557        4.4919001235        0.5017315387  CLST      48              1.0000000000
       237        48  DCM       H1             -3.6337510846        3.9475223795        1.1829060895  CLST      48              1.0000000000
       238        48  DCM       H2             -5.2572598823        3.9207473044        0.3333965085  CLST      48              1.0000000000
       239        48  DCM       CL1            -3.5050229769        4.7386694824       -1.0685861745  CLST      48              1.0000000000
       240        48  DCM       CL2            -4.7254563806        6.0742667624        1.2216767932  CLST      48              1.0000000000
       241        49  DCM       C               4.7337024973        0.5906424019        2.5677646459  CLST      49              1.0000000000
       242        49  DCM       H1              4.7655792193        1.6714728271        2.3156143282  CLST      49              1.0000000000
       243        49  DCM       H2              4.1711567242        0.4161229432        3.5079771366  CLST      49              1.0000000000
       244        49  DCM       CL1             3.9346648699       -0.2954705365        1.2431056502  CLST      49              1.0000000000
       245        49  DCM       CL2             6.3993253506       -0.0184902441        2.7663875588  CLST      49              1.0000000000
       246        50  DCM       C              -0.4630966579        0.6453418018       -8.7801240290  CLST      50              1.0000000000
       247        50  DCM       H1             -1.1471411059        0.2219642054       -8.0156303748  CLST      50              1.0000000000
       248        50  DCM       H2             -0.5782481745        0.1202159481       -9.7516554548  CLST      50              1.0000000000
       249        50  DCM       CL1            -0.8417500244        2.3768249623       -9.0072370058  CLST      50              1.0000000000
       250        50  DCM       CL2             1.2207881727        0.4595053520       -8.2131677577  CLST      50              1.0000000000
       251        51  DCM       C               8.5033934059        3.7228483615       -7.1563747693  CLST      51              1.0000000000
       252        51  DCM       H1              9.2741440557        4.2341868245       -6.5413621632  CLST      51              1.0000000000
       253        51  DCM       H2              8.9561429041        3.2502576123       -8.0527244322  CLST      51              1.0000000000
       254        51  DCM       CL1             7.7220168023        2.4536329723       -6.1752010041  CLST      51              1.0000000000
       255        51  DCM       CL2             7.2833690159        4.9206334951       -7.6789203817  CLST      51              1.0000000000
       256        52  DCM       C               6.9559767084       -1.6524250578       -0.6570421748  CLST      52              1.0000000000
       257        52  DCM       H1              6.2346214121       -2.1604195698        0.0169439688  CLST      52              1.0000000000
       258        52  DCM       H2              6.6449210556       -0.6069859193       -0.8560487398  CLST      52              1.0000000000
       259        52  DCM       CL1             8.5717085357       -1.6417370278        0.1044833693  CLST      52              1.0000000000
       260        52  DCM       CL2             7.0261711294       -2.5386612772       -2.2045251989  CLST      52              1.0000000000
       261        53  DCM       C               5.7817703045       -1.2933303436       -5.4934797701  CLST      53              1.0000000000
       262        53  DCM       H1              5.6447246127       -2.2084731420       -6.1058251290  CLST      53              1.0000000000
       263        53  DCM       H2              5.3365019999       -1.4131132990       -4.4833130821  CLST      53              1.0000000000
       264        53  DCM       CL1             7.5283533557       -0.9652134361       -5.3298893512  CLST      53              1.0000000000
       265        53  DCM       CL2             4.9859806991        0.0732010356       -6.3173752895  CLST      53              1.0000000000
       266        54  DCM       C               0.4851586545        5.9840578521       -2.9332486009  CLST      54              1.0000000000
       267        54  DCM       H1              0.8244921688        6.9667284584       -2.5424271818  CLST      54              1.0000000000
       268        54  DCM       H2             -0.2875713587        5.5402400458       -2.2716247402  CLST      54              1.0000000000
       269        54  DCM       CL1            -0.2154687598        6.2065545104       -4.5627306232  CLST      54              1.0000000000
       270        54  DCM       CL2             1.8875855971        4.8775880548       -3.0148543902  CLST      54              1.0000000000
       271        55  DCM       C              -2.7673347479        0.6391238014       -0.8953716210  CLST      55              1.0000000000
       272        55  DCM       H1             -3.7518904176        0.3071627229       -0.5021276087  CLST      55              1.0000000000
       273        55  DCM       H2             -2.7656521482        1.7273422517       -1.1125385435  CLST      55              1.0000000000
       274        55  DCM       CL1            -1.5035011614        0.2863915961        0.3165038367  CLST      55              1.0000000000
       275        55  DCM       CL2            -2.4171271738       -0.2533118240       -2.4006328842  CLST      55              1.0000000000
       276        56  DCM       C              11.9649433288        0.5453799859        6.5226639939  CLST      56              1.0000000000
       277        56  DCM       H1             12.4596526080        0.2150415903        5.5852207073  CLST      56              1.0000000000
       278        56  DCM       H2             12.6853548653        0.5806442827        7.3674907165  CLST      56              1.0000000000
       279        56  DCM       CL1            11.2883021419        2.1797684722        6.2724061561  CLST      56              1.0000000000
       280        56  DCM       CL2            10.6532861720       -0.6013739105        6.9248485017  CLST      56              1.0000000000
       281        57  DCM       C               1.0702835687        1.1816117493       -2.8601431168  CLST      57              1.0000000000
       282        57  DCM       H1              0.7478727819        2.2402137817       -2.9312266011  CLST      57              1.0000000000
       283        57  DCM       H2              0.2288537519        0.4913141569       -3.0692636780  CLST      57              1.0000000000
       284        57  DCM       CL1             2.3671801748        0.8880645596       -4.0514235800  CLST      57              1.0000000000
       285        57  DCM       CL2             1.6725687736        0.8780189410       -1.2081550886  CLST      57              1.0000000000
       286        58  DCM       C               4.9332106002      -10.3094364274       -3.0680989300  CLST      58              1.0000000000
       287        58  DCM       H1              4.5121822082       -9.3425328545       -3.4123879977  CLST      58              1.0000000000
       288        58  DCM       H2              5.9967791021      -10.4098433329       -3.3719278592  CLST      58              1.0000000000
       289        58  DCM       CL1             4.8259806768      -10.3821905255       -1.2859511227  CLST      58              1.0000000000
       290        58  DCM       CL2             3.9862472757      -11.6442873209       -3.7875920738  CLST      58              1.0000000000
       291        59  DCM       C              -6.6632251691        9.3290102064        0.9542030834  CLST      59              1.0000000000
       292        59  DCM       H1             -5.7254643756        8.8070017199        0.6721203032  CLST      59              1.0000000000
       293        59  DCM       H2             -7.0625808424        8.9369011943        1.9129379497  CLST      59              1.0000000000
       294        59  DCM       CL1            -6.3212907769       11.0748025384        1.1331589370  CLST      59              1.0000000000
       295        59  DCM       CL2            -7.8818842022        9.0766456096       -0.3275383395  CLST      59              1.0000000000
       296        60  DCM       C               3.6537073617        9.6609757882       -3.5409610678  CLST      60              1.0000000000
       297        60  DCM       H1              2.5743453454        9.9053481553       -3.6329462480  CLST      60              1.0000000000
       298        60  DCM       H2              4.1626078355        9.7222574485       -4.5253991813  CLST      60              1.0000000000
       299        60  DCM       CL1             4.4214208481       10.8180978770       -2.4164725989  CLST      60              1.0000000000
       300        60  DCM       CL2             3.8151159498        7.9985738997       -2.9087262462  CLST      60              1.0000000000
       301        61  DCM       C               4.8450754972       -2.9166303908        7.5110951004  CLST      61              1.0000000000
       302        61  DCM       H1              5.1916782014       -2.3738913422        6.6067431091  CLST      61              1.0000000000
       303        61  DCM       H2              5.4410036780       -2.6220555931        8.3988740188  CLST      61              1.0000000000
       304        61  DCM       CL1             3.1246572796       -2.5245017971        7.8059451585  CLST      61              1.0000000000
       305        61  DCM       CL2             5.0398575365       -4.6724174185        7.2418748158  CLST      61              1.0000000000
       306        62  DCM       C              -6.6688005014        6.1786092278        5.0140274919  CLST      62              1.0000000000
       307        62  DCM       H1             -6.5333163218        7.2053558378        5.4091953649  CLST      62              1.0000000000
       308        62  DCM       H2             -7.2594735485        5.5560759637        5.7198801193  CLST      62              1.0000000000
       309        62  DCM       CL1            -7.5325972962        6.2615171105        3.4509372737  CLST      62              1.0000000000
       310        62  DCM       CL2            -5.0621710419        5.4310363242        4.7806968511  CLST      62              1.0000000000
       311        63  DCM       C              -8.2217919523        5.4995627346       -0.2709166576  CLST      63              1.0000000000
       312        63  DCM       H1             -7.7260913698        6.1732074580        0.4596829890  CLST      63              1.0000000000
       313        63  DCM       H2             -9.1826969836        5.9296847875       -0.6230541862  CLST      63              1.0000000000
       314        63  DCM       CL1            -7.1372976376        5.2684248739       -1.6710226790  CLST      63              1.0000000000
       315        63  DCM       CL2            -8.5386202264        3.9267883924        0.5140909966  CLST      63              1.0000000000
       316        64  DCM       C              -0.1988564894       -4.5989689135       -8.4959048363  CLST      64              1.0000000000
       317        64  DCM       H1             -0.0504174952       -5.2306758363       -9.3970250421  CLST      64              1.0000000000
       318        64  DCM       H2              0.7102700872       -4.5947111462       -7.8591176559  CLST      64              1.0000000000
       319        64  DCM       CL1            -0.5540327697       -2.9244456655       -9.0083221209  CLST      64              1.0000000000
       320        64  DCM       CL2            -1.5681921341       -5.2496081948       -7.5493215995  CLST      64              1.0000000000
       321        65  DCM       C               7.1331282617        5.3693973929       -3.8438553678  CLST      65              1.0000000000
       322        65  DCM       H1              6.7203606763        4.8685479037       -4.7419076700  CLST      65              1.0000000000
       323        65  DCM       H2              7.3209678398        6.4446867350       -4.0411775209  CLST      65              1.0000000000
       324        65  DCM       CL1             5.9590869691        5.2157739724       -2.5067615654  CLST      65              1.0000000000
       325        65  DCM       CL2             8.6669484085        4.5724126502       -3.3911382406  CLST      65              1.0000000000
       326        66  DCM       C              -1.2465096806       14.7595412361       -0.9246651371  CLST      66              1.0000000000
       327        66  DCM       H1             -1.7645549660       15.7401331869       -0.8700036936  CLST      66              1.0000000000
       328        66  DCM       H2             -1.0492782869       14.4699872784       -1.9787994090  CLST      66              1.0000000000
       329        66  DCM       CL1             0.3085954414       14.8744897573       -0.0510537145  CLST      66              1.0000000000
       330        66  DCM       CL2            -2.2759020347       13.5140190526       -0.1616348681  CLST      66              1.0000000000
       331        67  DCM       C             -12.6185194144       -1.1596996290        5.5857754937  CLST      67              1.0000000000
       332        67  DCM       H1            -12.6571655173       -0.0499119150        5.5747949726  CLST      67              1.0000000000
       333        67  DCM       H2            -11.6809406371       -1.5207605447        6.0546287107  CLST      67              1.0000000000
       334        67  DCM       CL1           -14.0102059101       -1.7858547619        6.5196474660  CLST      67              1.0000000000
       335        67  DCM       CL2           -12.6940710733       -1.7623050896        3.9063521075  CLST      67              1.0000000000
       336        68  DCM       C              -7.2427984474        0.7201496428       -0.9609340237  CLST      68              1.0000000000
       337        68  DCM       H1             -6.9783170979        1.7517783373       -0.6482252072  CLST      68              1.0000000000
       338        68  DCM       H2             -6.3323210945        0.1290215484       -1.1920564320  CLST      68              1.0000000000
       339        68  DCM       CL1            -8.1396026271       -0.0790388165        0.3579307882  CLST      68              1.0000000000
       340        68  DCM       CL2            -8.2681411568        0.7995697255       -2.4210380038  CLST      68              1.0000000000
       341        69  DCM       C              -6.2631163508       -6.5542659391        0.5585647289  CLST      69              1.0000000000
       342        69  DCM       H1             -6.8026751805       -6.0097012232       -0.2449258292  CLST      69              1.0000000000
       343        69  DCM       H2             -5.6374887291       -7.3696639122        0.1386667040  CLST      69              1.0000000000
       344        69  DCM       CL1            -5.2130264150       -5.4034041275        1.4325968952  CLST      69              1.0000000000
       345        69  DCM       CL2            -7.4577636063       -7.2557524239        1.6879173190  CLST      69              1.0000000000
       346        70  DCM       C               6.2038350644       -7.3780883891        2.4926528606  CLST      70              1.0000000000
       347        70  DCM       H1              6.3247866933       -6.5055299695        1.8167870957  CLST      70              1.0000000000
       348        70  DCM       H2              5.1311599504       -7.5930822416        2.6752741752  CLST      70              1.0000000000
       349        70  DCM       CL1             6.9567464922       -8.8116750486        1.7384005878  CLST      70              1.0000000000
       350        70  DCM       CL2             6.9934940597       -7.0209766430        4.0557881795  CLST      70              1.0000000000
       351        71  DCM       C              -5.9783489697       -6.2489359513       -4.9675910534  CLST      71              1.0000000000
       352        71  DCM       H1             -6.3392599119       -7.1412792241       -5.5210850441  CLST      71              1.0000000000
       353        71  DCM       H2             -6.4150046689       -5.3170870512       -5.3854796437  CLST      71              1.0000000000
       354        71  DCM       CL1            -6.4548801282       -6.3979510488       -3.2515654077  CLST      71              1.0000000000
       355        71  DCM       CL2            -4.1971040457       -6.1673433079       -5.0945181667  CLST      71              1.0000000000
       356        72  DCM       C               2.2501930378       10.6328645127        0.6703308515  CLST      72              1.0000000000
       357        72  DCM       H1              2.8462619567       11.3151641673        0.0290129430  CLST      72              1.0000000000
       358        72  DCM       H2              2.8320844188       10.3034332278        1.5566392113  CLST      72              1.0000000000
       359        72  DCM       CL1             0.7862980546       11.4919990380        1.2220531777  CLST      72              1.0000000000
       360        72  DCM       CL2             1.7788873526        9.1984137046       -0.2827359967  CLST      72              1.0000000000
       361        73  DCM       C              -9.9684095707        0.8886319078        3.2357130256  CLST      73              1.0000000000
       362        73  DCM       H1            -10.4877332008        0.2933993543        2.4587289061  CLST      73              1.0000000000
       363        73  DCM       H2             -9.1095364184        1.4472186131        2.8052754551  CLST      73              1.0000000000
       364        73  DCM       CL1           -11.1201549064        2.0596443802        3.9397759735  CLST      73              1.0000000000
       365        73  DCM       CL2            -9.3724922034       -0.2121825538        4.5094008071  CLST      73              1.0000000000
       366        74  DCM       C             -11.6718364337        0.6620068757       -1.3214575162  CLST      74              1.0000000000
       367        74  DCM       H1            -11.6586180346        1.2570179688       -2.2590353943  CLST      74              1.0000000000
       368        74  DCM       H2            -10.8625877419       -0.0973645693       -1.3214754255  CLST      74              1.0000000000
       369        74  DCM       CL1           -11.4354480894        1.7591403117        0.0677117795  CLST      74              1.0000000000
       370        74  DCM       CL2           -13.2470051207       -0.1692288716       -1.1743777829  CLST      74              1.0000000000
       371        75  DCM       C               2.7202294942       -4.0506606666        4.3930282780  CLST      75              1.0000000000
       372        75  DCM       H1              2.7700014529       -4.3422949064        5.4616483992  CLST      75              1.0000000000
       373        75  DCM       H2              1.6672939240       -3.9558370004        4.0563065862  CLST      75              1.0000000000
       374        75  DCM       CL1             3.5616190576       -2.4872326825        4.1873778850  CLST      75              1.0000000000
       375        75  DCM       CL2             3.5288148942       -5.3070090501        3.4177925896  CLST      75              1.0000000000
       376        76  DCM       C               2.4972355586       -8.8988964382       -7.3472864935  CLST      76              1.0000000000
       377        76  DCM       H1              1.7030070634       -9.6451540594       -7.5625886196  CLST      76              1.0000000000
       378        76  DCM       H2              3.4779175533       -9.2299493705       -7.7497899841  CLST      76              1.0000000000
       379        76  DCM       CL1             2.0532490918       -7.3406621908       -8.1009997530  CLST      76              1.0000000000
       380        76  DCM       CL2             2.6367289716       -8.6938294291       -5.5787822273  CLST      76              1.0000000000
       381        77  DCM       C               2.9097464079        7.0115643501       -6.3457883621  CLST      77              1.0000000000
       382        77  DCM       H1              2.6113370876        6.3816801215       -7.2089211532  CLST      77              1.0000000000
       383        77  DCM       H2              2.6738466789        6.5066399295       -5.3833286533  CLST      77              1.0000000000
       384        77  DCM       CL1             4.6705396988        7.3078047101       -6.4222002538  CLST      77              1.0000000000
       385        77  DCM       CL2             2.0187926808        8.5588033515       -6.4257199152  CLST      77              1.0000000000
       386        78  DCM       C              -1.8966488107       12.1778237211        3.4676962515  CLST      78              1.0000000000
       387        78  DCM       H1             -1.8559163108       12.1914174937        2.3593459817  CLST      78              1.0000000000
       388        78  DCM       H2             -2.9265929022       12.3747133615        3.8297377524  CLST      78              1.0000000000
       389        78  DCM       CL1            -0.8043001067       13.4416015329        4.1021692796  CLST      78              1.0000000000
       390        78  DCM       CL2            -1.3650066376       10.5723096947        4.0452007203  CLST      78              1.0000000000
       391        79  DCM       C              -5.2240762974       -1.3741383112       -7.5676323895  CLST      79              1.0000000000
       392        79  DCM       H1             -5.2701252445       -0.6667857876       -6.7111518712  CLST      79              1.0000000000
       393        79  DCM       H2             -6.1587886822       -1.3334361392       -8.1645038375  CLST      79              1.0000000000
       394        79  DCM       CL1            -5.0022618748       -3.0359450150       -6.9462787337  CLST      79              1.0000000000
       395        79  DCM       CL2            -3.8423501109       -0.9319338217       -8.6114581431  CLST      79              1.0000000000
       396        80  DCM       C              -3.7648712150        7.4852502354       -3.4202074699  CLST      80              1.0000000000
       397        80  DCM       H1             -4.2017824972        6.5495779309       -3.8288125045  CLST      80              1.0000000000
       398        80  DCM       H2             -2.6985225744        7.3404899094       -3.1467206091  CLST      80              1.0000000000
       399        80  DCM       CL1            -3.8805616924        8.7743190878       -4.6519884636  CLST      80              1.0000000000
       400        80  DCM       CL2            -4.6805104457        7.9642644791       -1.9635848201  CLST      80              1.0000000000
       401        81  DCM       C              -5.6603284165        3.2997671843       -4.5661378534  CLST      81              1.0000000000
       402        81  DCM       H1             -6.3478770476        4.1257932242       -4.2904811750  CLST      81              1.0000000000
       403        81  DCM       H2             -4.7433033604        3.6901400566       -5.0546965475  CLST      81              1.0000000000
       404        81  DCM       CL1            -5.1946673500        2.4149428977       -3.0872163796  CLST      81              1.0000000000
       405        81  DCM       CL2            -6.4994357174        2.1961324397       -5.6935367124  CLST      81              1.0000000000
       406        82  DCM       C               1.1786138724        4.0195132362        0.5943180048  CLST      82              1.0000000000
       407        82  DCM       H1              2.0290845970        3.5609161391        0.0485897741  CLST      82              1.0000000000
       408        82  DCM       H2              1.1612661066        3.6971987695        1.6572707336  CLST      82              1.0000000000
       409        82  DCM       CL1             1.3398666825        5.7934341490        0.5268959559  CLST      82              1.0000000000
       410        82  DCM       CL2            -0.3531609689        3.5384718228       -0.1858146826  CLST      82              1.0000000000
       411        83  DCM       C              -1.9810854529       -2.0610386058       -5.5481116336  CLST      83              1.0000000000
       412        83  DCM       H1             -2.7792815917       -1.3338323702       -5.2942161625  CLST      83              1.0000000000
       413        83  DCM       H2             -2.1262613427       -2.4738510090       -6.5669651831  CLST      83              1.0000000000
       414        83  DCM       CL1            -0.3956048323       -1.2439924197       -5.4783368209  CLST      83              1.0000000000
       415        83  DCM       CL2            -2.0355274716       -3.3989526203       -4.3695562577  CLST      83              1.0000000000
       416        84  DCM       C               2.2260919532        7.1232981565        4.4742664003  CLST      84              1.0000000000
       417        84  DCM       H1              1.6735512340        7.1344514715        5.4372885336  CLST      84              1.0000000000
       418        84  DCM       H2              3.2288663580        7.5884326239        4.5811379269  CLST      84              1.0000000000
       419        84  DCM       CL1             2.4284744938        5.4290080174        3.9382566336  CLST      84              1.0000000000
       420        84  DCM       CL2             1.2885393956        8.0425439416        3.2611151790  CLST      84              1.0000000000
       421        85  DCM       C               0.5853854971       -0.5567814900        5.7077899862  CLST      85              1.0000000000
       422        85  DCM       H1              0.7075391684       -0.3660279181        6.7980688531  CLST      85              1.0000000000
       423        85  DCM       H2              0.9338732861       -1.5766362357        5.4437630841  CLST      85              1.0000000000
       424        85  DCM       CL1            -1.1423579393       -0.3994408121        5.2764303681  CLST      85              1.0000000000
       425        85  DCM       CL2             1.5489339986        0.6442610554        4.8016722688  CLST      85              1.0000000000
       426        86  DCM       C               5.1133270859        1.8415947096       -1.5817964692  CLST      86              1.0000000000
       427        86  DCM       H1              4.4306119739        2.7070410148       -1.7228693945  CLST      86              1.0000000000
       428        86  DCM       H2              4.5482985696        0.9274145925       -1.3103065694  CLST      86              1.0000000000
       429        86  DCM       CL1             6.2817483578        2.2136330996       -0.2815659077  CLST      86              1.0000000000
       430        86  DCM       CL2             5.9871519335        1.5325418761       -3.1058007885  CLST      86              1.0000000000
       431        87  DCM       C               4.5894006564       -3.3747474603       11.0945921426  CLST      87              1.0000000000
       432        87  DCM       H1              4.7128295089       -4.1819758372       10.3424947809  CLST      87              1.0000000000
       433        87  DCM       H2              3.8557597357       -2.6158955641       10.7504455507  CLST      87              1.0000000000
       434        87  DCM       CL1             4.0074428974       -4.0937764869       12.6235540368  CLST      87              1.0000000000
       435        87  DCM       CL2             6.1700570247       -2.5796826658       11.3509685047  CLST      87              1.0000000000
       436        88  DCM       C             -13.4541587507       -1.6342926232       -4.7116288085  CLST      88              1.0000000000
       437        88  DCM       H1            -13.9664233125       -1.5868619170       -3.7279766236  CLST      88              1.0000000000
       438        88  DCM       H2            -14.1418760721       -1.3421781243       -5.5334266658  CLST      88              1.0000000000
       439        88  DCM       CL1           -12.0602950973       -0.5173075262       -4.6957702793  CLST      88              1.0000000000
       440        88  DCM       CL2           -12.8856863903       -3.3047305920       -4.9935497347  CLST      88              1.0000000000
       441        89  DCM       C               9.9649700980        1.0737943556        2.1360659764  CLST      89              1.0000000000
       442        89  DCM       H1             10.4013180995        0.4918392814        1.2964799785  CLST      89              1.0000000000
       443        89  DCM       H2              8.9676499087        1.4811268517        1.8632735254  CLST      89              1.0000000000
       444        89  DCM       CL1             9.7933317844        0.0005627283        3.5529336360  CLST      89              1.0000000000
       445        89  DCM       CL2            11.0618186946        2.4260476646        2.5313624151  CLST      89              1.0000000000
       446        90  DCM       C              10.1606387646       -3.5552094374       -4.6649025329  CLST      90              1.0000000000
       447        90  DCM       H1             10.1129124471       -2.4756199231       -4.9147284122  CLST      90              1.0000000000
       448        90  DCM       H2             11.0298895236       -4.0422395778       -5.1547722164  CLST      90              1.0000000000
       449        90  DCM       CL1            10.3219859571       -3.7317871675       -2.8928652679  CLST      90              1.0000000000
       450        90  DCM       CL2             8.6584956060       -4.3494282628       -5.2235204868  CLST      90              1.0000000000
       451        91  DCM       C             -13.2937245086       -4.0458808891       -1.3568483254  CLST      91              1.0000000000
       452        91  DCM       H1            -13.1209100076       -4.1552880535       -0.2652255646  CLST      91              1.0000000000
       453        91  DCM       H2            -12.5865512139       -3.3142710834       -1.8026306598  CLST      91              1.0000000000
       454        91  DCM       CL1           -13.0657404300       -5.6345545977       -2.1435767554  CLST      91              1.0000000000
       455        91  DCM       CL2           -14.9652955938       -3.4736374761       -1.6235662241  CLST      91              1.0000000000
       456        92  DCM       C               0.5567690198      -11.0185692952       -1.8709791144  CLST      92              1.0000000000
       457        92  DCM       H1              1.0590532142      -11.8080609967       -2.4690429692  CLST      92              1.0000000000
       458        92  DCM       H2             -0.5140567681      -10.9247057925       -2.1488137006  CLST      92              1.0000000000
       459        92  DCM       CL1             0.6732327034      -11.4359774616       -0.1369269804  CLST      92              1.0000000000
       460        92  DCM       CL2             1.3729030578       -9.4596297521       -2.1727523685  CLST      92              1.0000000000
       461        93  DCM       C              -2.1049031854       -3.5295224203        3.8254416962  CLST      93              1.0000000000
       462        93  DCM       H1             -2.1763728190       -2.7341502287        3.0546941741  CLST      93              1.0000000000
       463        93  DCM       H2             -1.2118122184       -3.3798653676        4.4681779877  CLST      93              1.0000000000
       464        93  DCM       CL1            -1.9806289506       -5.1121562713        3.0126347187  CLST      93              1.0000000000
       465        93  DCM       CL2            -3.5702061547       -3.4902823592        4.8444897723  CLST      93              1.0000000000
       466        94  DCM       C              10.6357182191        4.4871305518       11.3428933433  CLST      94              1.0000000000
       467        94  DCM       H1             10.9708718506        3.7893661875       10.5468495025  CLST      94              1.0000000000
       468        94  DCM       H2             11.4952667084        4.8463698606       11.9474126667  CLST      94              1.0000000000
       469        94  DCM       CL1             9.4856474623        3.6376791621       12.4155134427  CLST      94              1.0000000000
       470        94  DCM       CL2             9.8291973150        5.8899664543       10.5826069875  CLST      94              1.0000000000
       471        95  DCM       C              -5.1115107497       -1.5838748638        2.1078953740  CLST      95              1.0000000000
       472        95  DCM       H1             -5.4261949478       -1.3165796001        1.0778201553  CLST      95              1.0000000000
       473        95  DCM       H2             -4.6512101416       -2.5932460262        2.1363975337  CLST      95              1.0000000000
       474        95  DCM       CL1            -6.5362763720       -1.5869857405        3.1758270243  CLST      95              1.0000000000
       475        95  DCM       CL2            -3.9259509138       -0.3852288226        2.6963190733  CLST      95              1.0000000000
       476        96  DCM       C              -2.1548765492       -4.4297174603       -0.8214537483  CLST      96              1.0000000000
       477        96  DCM       H1             -1.4370912111       -4.0907378962       -1.5940002524  CLST      96              1.0000000000
       478        96  DCM       H2             -1.6658545738       -5.0966008961       -0.0815085637  CLST      96              1.0000000000
       479        96  DCM       CL1            -2.7912542816       -2.9935388008        0.0183824037  CLST      96              1.0000000000
       480        96  DCM       CL2            -3.4825651304       -5.3202362785       -1.6138402115  CLST      96              1.0000000000
       481        97  DCM       C              -7.8995547259        8.1399464739       -4.0634777330  CLST      97              1.0000000000
       482        97  DCM       H1             -8.0521564241        9.0359609076       -4.7023194849  CLST      97              1.0000000000
       483        97  DCM       H2             -7.2354931627        8.3727516247       -3.2063343865  CLST      97              1.0000000000
       484        97  DCM       CL1            -7.1534772119        6.8424747529       -5.0410112856  CLST      97              1.0000000000
       485        97  DCM       CL2            -9.4805795513        7.5939284952       -3.4335039459  CLST      97              1.0000000000
       486        98  DCM       C               5.9219743425        1.7599813930       -9.2088909592  CLST      98              1.0000000000
       487        98  DCM       H1              5.6164969629        2.5633836381       -8.5066596645  CLST      98              1.0000000000
       488        98  DCM       H2              6.5421135312        0.9994058880       -8.6910105317  CLST      98              1.0000000000
       489        98  DCM       CL1             4.4596859018        0.9692070726       -9.8648286761  CLST      98              1.0000000000
       490        98  DCM       CL2             6.8753038544        2.4781150045      -10.5375720172  CLST      98              1.0000000000
