* PRE_MLPOT:MONOMER_REPACK
*  DATE:     6/28/26      2: 4:34      CREATED BY USER: boittier
*
       490  EXT
         1         1  DCM       C               1.2494688512       -1.7243279242        0.4885709654  CLST      1               1.0000000000
         2         1  DCM       H1              1.5175925351       -0.9879259839        1.2755271595  CLST      1               1.0000000000
         3         1  DCM       H2              0.9235559853       -2.6861689724        0.9377845575  CLST      1               1.0000000000
         4         1  DCM       CL1             2.6774771193       -2.0209209415       -0.5435773021  CLST      1               1.0000000000
         5         1  DCM       CL2            -0.0860727639       -1.0617684672       -0.4969630735  CLST      1               1.0000000000
         6         2  DCM       C              -0.3773314551        0.5520257967       -0.1293079937  CLST      2               1.0000000000
         7         2  DCM       H1             -1.1432881628        1.2854085119        0.1948919221  CLST      2               1.0000000000
         8         2  DCM       H2             -0.0067441101        0.7860672939       -1.1483297204  CLST      2               1.0000000000
         9         2  DCM       CL1             0.9970911559        0.6058827957        1.0108332249  CLST      2               1.0000000000
        10         2  DCM       CL2            -1.1058240043       -1.0800539962       -0.1291966538  CLST      2               1.0000000000
        11         3  DCM       C              -1.5008716795       -1.6498100326        1.9972874397  CLST      3               1.0000000000
        12         3  DCM       H1             -1.3118988429       -1.7315850033        0.9069521155  CLST      3               1.0000000000
        13         3  DCM       H2             -2.3229184479       -0.9324473802        2.2055014138  CLST      3               1.0000000000
        14         3  DCM       CL1            -1.9573840848       -3.2591862019        2.6231522585  CLST      3               1.0000000000
        15         3  DCM       CL2            -0.0120955172       -1.0825084574        2.8078358264  CLST      3               1.0000000000
        16         4  DCM       C              -2.9424412251       -0.0414144894       -2.0328318783  CLST      4               1.0000000000
        17         4  DCM       H1             -2.7620051568       -1.0828324977       -1.6923304189  CLST      4               1.0000000000
        18         4  DCM       H2             -2.7606605334        0.6836955809       -1.2119248722  CLST      4               1.0000000000
        19         4  DCM       CL1            -1.8515820404        0.3320665256       -3.3965177830  CLST      4               1.0000000000
        20         4  DCM       CL2            -4.6375233045        0.1040779772       -2.5704557561  CLST      4               1.0000000000
        21         5  DCM       C               0.3103477292       -3.2182517397        1.2550738045  CLST      5               1.0000000000
        22         5  DCM       H1             -0.0151937280       -3.6275587383        0.2755433635  CLST      5               1.0000000000
        23         5  DCM       H2             -0.5092495813       -3.2664055777        2.0009621663  CLST      5               1.0000000000
        24         5  DCM       CL1             1.6932727468       -4.1791420799        1.8495122161  CLST      5               1.0000000000
        25         5  DCM       CL2             0.8012169943       -1.5129534062        1.0424413553  CLST      5               1.0000000000
        26         6  DCM       C               0.5659421843       -0.9990891588        0.8783368751  CLST      6               1.0000000000
        27         6  DCM       H1             -0.0437454916       -1.9223698129        0.9707548795  CLST      6               1.0000000000
        28         6  DCM       H2              1.6480090743       -1.2225202590        0.9860697688  CLST      6               1.0000000000
        29         6  DCM       CL1             0.2802277030       -0.2754843886       -0.7296194514  CLST      6               1.0000000000
        30         6  DCM       CL2             0.0761431440        0.1487070140        2.1577030572  CLST      6               1.0000000000
        31         7  DCM       C              -0.8010706585        2.9323230664        0.3230326771  CLST      7               1.0000000000
        32         7  DCM       H1             -1.8853641953        2.6926608238        0.3465533072  CLST      7               1.0000000000
        33         7  DCM       H2             -0.3291644392        2.5539268903       -0.6073143686  CLST      7               1.0000000000
        34         7  DCM       CL1            -0.5913408872        4.7049078127        0.4047865819  CLST      7               1.0000000000
        35         7  DCM       CL2            -0.0045035215        2.1661677450        1.7260755591  CLST      7               1.0000000000
        36         8  DCM       C              -2.2169946793        2.9088116192       -1.2658630099  CLST      8               1.0000000000
        37         8  DCM       H1             -2.5346514567        3.9673062176       -1.1644042318  CLST      8               1.0000000000
        38         8  DCM       H2             -1.6407640469        2.5838705340       -0.3764286232  CLST      8               1.0000000000
        39         8  DCM       CL1            -3.6646278226        1.8742853645       -1.4192608756  CLST      8               1.0000000000
        40         8  DCM       CL2            -1.1898950151        2.7390438741       -2.7185904892  CLST      8               1.0000000000
        41         9  DCM       C              -1.2972591647        2.1015187653       -2.1839548238  CLST      9               1.0000000000
        42         9  DCM       H1             -2.3039358943        2.3292138747       -1.7761739354  CLST      9               1.0000000000
        43         9  DCM       H2             -0.7073141169        3.0286908591       -2.3357098580  CLST      9               1.0000000000
        44         9  DCM       CL1            -0.4313208139        1.0371477100       -1.0379877641  CLST      9               1.0000000000
        45         9  DCM       CL2            -1.4888177900        1.2812204718       -3.7589706771  CLST      9               1.0000000000
        46        10  DCM       C              -3.0980059128       -0.1094021709       -1.1786853231  CLST      10              1.0000000000
        47        10  DCM       H1             -2.0343427324        0.1883565122       -1.2918004396  CLST      10              1.0000000000
        48        10  DCM       H2             -3.1877893913       -1.1964491483       -0.9689568450  CLST      10              1.0000000000
        49        10  DCM       CL1            -3.8191353862        0.8071223660        0.1755942794  CLST      10              1.0000000000
        50        10  DCM       CL2            -3.9695877109        0.2645681378       -2.6935663511  CLST      10              1.0000000000
        51        11  DCM       C               3.1027624807       -2.7377447335        0.1592690119  CLST      11              1.0000000000
        52        11  DCM       H1              3.1464116900       -3.3205747990       -0.7841060325  CLST      11              1.0000000000
        53        11  DCM       H2              3.9934908427       -2.0851018196        0.2621924365  CLST      11              1.0000000000
        54        11  DCM       CL1             1.6300589093       -1.7268140247        0.1526482233  CLST      11              1.0000000000
        55        11  DCM       CL2             3.0454745443       -3.8714815286        1.5361088947  CLST      11              1.0000000000
        56        12  DCM       C               2.9283407043       -0.4178087216        1.4969296352  CLST      12              1.0000000000
        57        12  DCM       H1              1.8242632409       -0.3290249011        1.5668934883  CLST      12              1.0000000000
        58        12  DCM       H2              3.3564120038       -0.8127953274        2.4422944757  CLST      12              1.0000000000
        59        12  DCM       CL1             3.3364294378       -1.5301301773        0.1580670113  CLST      12              1.0000000000
        60        12  DCM       CL2             3.6177836391        1.2001927213        1.1749558011  CLST      12              1.0000000000
        61        13  DCM       C               2.2721878826        2.6444822655       -1.5367053681  CLST      13              1.0000000000
        62        13  DCM       H1              1.8126957826        1.6659846177       -1.7905473128  CLST      13              1.0000000000
        63        13  DCM       H2              2.2754034147        3.3241771707       -2.4148394299  CLST      13              1.0000000000
        64        13  DCM       CL1             1.3403759845        3.4034775065       -0.2155601007  CLST      13              1.0000000000
        65        13  DCM       CL2             3.9555364488        2.3751630921       -1.0039888273  CLST      13              1.0000000000
        66        14  DCM       C               2.4494819191       -0.8168853947        1.9292377272  CLST      14              1.0000000000
        67        14  DCM       H1              1.4444788826       -0.3463243840        1.9164922660  CLST      14              1.0000000000
        68        14  DCM       H2              3.2098814351       -0.1422909304        1.4807642035  CLST      14              1.0000000000
        69        14  DCM       CL1             2.9048549815       -1.1654865401        3.6196246263  CLST      14              1.0000000000
        70        14  DCM       CL2             2.4011379514       -2.3411982339        0.9978170691  CLST      14              1.0000000000
        71        15  DCM       C               2.4624987870       -3.2509761018        2.3186276556  CLST      15              1.0000000000
        72        15  DCM       H1              3.1644935775       -3.8315892609        2.9520665984  CLST      15              1.0000000000
        73        15  DCM       H2              2.2054239722       -2.2801642844        2.7927853257  CLST      15              1.0000000000
        74        15  DCM       CL1             3.2202499617       -2.9370395858        0.7341952388  CLST      15              1.0000000000
        75        15  DCM       CL2             0.9734411509       -4.2056375488        2.0851180638  CLST      15              1.0000000000
        76        16  DCM       C              -2.3500838472        2.0259347052        0.5820332144  CLST      16              1.0000000000
        77        16  DCM       H1             -2.1700720871        1.0634664888        0.0577944045  CLST      16              1.0000000000
        78        16  DCM       H2             -3.3839619050        2.3886518591        0.4046397051  CLST      16              1.0000000000
        79        16  DCM       CL1            -2.1074908079        1.7857959578        2.3367145646  CLST      16              1.0000000000
        80        16  DCM       CL2            -1.1923176949        3.2440303767       -0.0262440756  CLST      16              1.0000000000
        81        17  DCM       C               0.8713896465        1.1814604102       -2.7795901681  CLST      17              1.0000000000
        82        17  DCM       H1             -0.0704710637        1.3357299157       -2.2136072393  CLST      17              1.0000000000
        83        17  DCM       H2              0.8625698661        0.2047147438       -3.3080173079  CLST      17              1.0000000000
        84        17  DCM       CL1             1.0454629889        2.4946916033       -3.9789146936  CLST      17              1.0000000000
        85        17  DCM       CL2             2.2446398455        1.2155428543       -1.6367922263  CLST      17              1.0000000000
        86        18  DCM       C               2.1994697419       -2.1879475385       -1.8233057367  CLST      18              1.0000000000
        87        18  DCM       H1              2.2824802901       -3.1739782709       -2.3269573978  CLST      18              1.0000000000
        88        18  DCM       H2              1.4398944260       -1.5467456032       -2.3193292975  CLST      18              1.0000000000
        89        18  DCM       CL1             1.7279449669       -2.4407814455       -0.1185767764  CLST      18              1.0000000000
        90        18  DCM       CL2             3.7869884833       -1.3750636861       -1.8935240901  CLST      18              1.0000000000
        91        19  DCM       C              -0.6788485726       -0.6131603332       -2.4584429237  CLST      19              1.0000000000
        92        19  DCM       H1             -0.9878719169       -1.6339609740       -2.1615493067  CLST      19              1.0000000000
        93        19  DCM       H2              0.4256375244       -0.5398729228       -2.5510467945  CLST      19              1.0000000000
        94        19  DCM       CL1            -1.4316621828       -0.2232929491       -4.0306925291  CLST      19              1.0000000000
        95        19  DCM       CL2            -1.2365382265        0.5311656971       -1.2079781933  CLST      19              1.0000000000
        96        20  DCM       C              -1.8266162340       -2.3476835071       -1.7498040263  CLST      20              1.0000000000
        97        20  DCM       H1             -1.6147434412       -1.2919893908       -1.4816380632  CLST      20              1.0000000000
        98        20  DCM       H2             -2.8175521653       -2.6661587546       -1.3631343529  CLST      20              1.0000000000
        99        20  DCM       CL1            -1.8121642050       -2.5140146655       -3.5288998447  CLST      20              1.0000000000
       100        20  DCM       CL2            -0.5657883601       -3.3904987722       -1.0380866966  CLST      20              1.0000000000
       101        21  DCM       C               0.1115145974       -1.5289071411        3.5298775769  CLST      21              1.0000000000
       102        21  DCM       H1             -0.3466215275       -2.2717255733        2.8423294906  CLST      21              1.0000000000
       103        21  DCM       H2              0.0793394451       -0.5087267837        3.0934381371  CLST      21              1.0000000000
       104        21  DCM       CL1             1.8155094115       -1.9799983061        3.8236450051  CLST      21              1.0000000000
       105        21  DCM       CL2            -0.7880786581       -1.5299025299        5.0745465012  CLST      21              1.0000000000
       106        22  DCM       C               0.5559110996       -1.9286100527        2.5066554037  CLST      22              1.0000000000
       107        22  DCM       H1             -0.2978949717       -1.2200872756        2.4886099262  CLST      22              1.0000000000
       108        22  DCM       H2              1.1378342342       -1.8218322241        3.4468926195  CLST      22              1.0000000000
       109        22  DCM       CL1            -0.0702257651       -3.5991995873        2.3932678280  CLST      22              1.0000000000
       110        22  DCM       CL2             1.6291901836       -1.5885840627        1.1198724078  CLST      22              1.0000000000
       111        23  DCM       C              -1.3645281674        2.3312291400       -0.4178556828  CLST      23              1.0000000000
       112        23  DCM       H1             -1.4779813355        2.0666648278       -1.4892439309  CLST      23              1.0000000000
       113        23  DCM       H2             -0.6728707515        1.6292085822        0.0960752271  CLST      23              1.0000000000
       114        23  DCM       CL1            -0.7070752540        3.9889710270       -0.2915654950  CLST      23              1.0000000000
       115        23  DCM       CL2            -2.9667659008        2.2540388363        0.3711018163  CLST      23              1.0000000000
       116        24  DCM       C               2.6303279961        0.3625472120       -2.2989217637  CLST      24              1.0000000000
       117        24  DCM       H1              3.3177825684        1.1377433344       -1.8990487628  CLST      24              1.0000000000
       118        24  DCM       H2              3.1045955160       -0.6415062520       -2.2804327453  CLST      24              1.0000000000
       119        24  DCM       CL1             1.1508312487        0.3250140180       -1.2955257235  CLST      24              1.0000000000
       120        24  DCM       CL2             2.2086076942        0.7746617229       -3.9869393033  CLST      24              1.0000000000
       121        25  DCM       C              -0.3019344824        1.4515407778        3.1833091471  CLST      25              1.0000000000
       122        25  DCM       H1             -0.8778844877        2.0099798068        2.4168249786  CLST      25              1.0000000000
       123        25  DCM       H2             -0.9392632503        1.2061918048        4.0589625618  CLST      25              1.0000000000
       124        25  DCM       CL1             0.3026595933       -0.0660122224        2.4596050408  CLST      25              1.0000000000
       125        25  DCM       CL2             1.0762577184        2.4542778750        3.7243321514  CLST      25              1.0000000000
       126        26  DCM       C               3.5058383990        0.9161826471       -0.9838464298  CLST      26              1.0000000000
       127        26  DCM       H1              3.8847920159        0.4055029396       -1.8929604644  CLST      26              1.0000000000
       128        26  DCM       H2              4.0476601054        1.8702892707       -0.8041905098  CLST      26              1.0000000000
       129        26  DCM       CL1             1.7665745160        1.2688998678       -1.1977773523  CLST      26              1.0000000000
       130        26  DCM       CL2             3.7389087756       -0.1569715559        0.4263474163  CLST      26              1.0000000000
       131        27  DCM       C               3.1987928291       -1.5286571081        0.7336685429  CLST      27              1.0000000000
       132        27  DCM       H1              2.8029382361       -1.9376317407        1.6863462700  CLST      27              1.0000000000
       133        27  DCM       H2              2.4909604736       -0.7982727881        0.2880791539  CLST      27              1.0000000000
       134        27  DCM       CL1             4.7530454831       -0.7104927154        1.0592071246  CLST      27              1.0000000000
       135        27  DCM       CL2             3.4521061654       -2.8751766755       -0.4140328537  CLST      27              1.0000000000
       136        28  DCM       C               1.3408249950        3.0545283558        1.1082103326  CLST      28              1.0000000000
       137        28  DCM       H1              1.5103812252        2.4092267678        0.2213552898  CLST      28              1.0000000000
       138        28  DCM       H2              1.8041574997        4.0531041385        0.9707523867  CLST      28              1.0000000000
       139        28  DCM       CL1            -0.4162140138        3.2586145941        1.3453301072  CLST      28              1.0000000000
       140        28  DCM       CL2             2.0583982464        2.2660242575        2.5412774827  CLST      28              1.0000000000
       141        29  DCM       C              -0.8536697281       -1.2960962522        0.2290590519  CLST      29              1.0000000000
       142        29  DCM       H1             -1.8902388220       -1.0026999217        0.5020919859  CLST      29              1.0000000000
       143        29  DCM       H2             -0.7647565808       -1.4718684401       -0.8630749274  CLST      29              1.0000000000
       144        29  DCM       CL1             0.2704926418        0.0116149652        0.6999022315  CLST      29              1.0000000000
       145        29  DCM       CL2            -0.4218692748       -2.7986499958        1.0944621347  CLST      29              1.0000000000
       146        30  DCM       C               2.2221491580       -0.2562269606        1.3092932556  CLST      30              1.0000000000
       147        30  DCM       H1              2.6294790020        0.6916077293        1.7157374822  CLST      30              1.0000000000
       148        30  DCM       H2              1.2276454962       -0.0934031543        0.8419290459  CLST      30              1.0000000000
       149        30  DCM       CL1             2.0531307408       -1.4358076999        2.6399318065  CLST      30              1.0000000000
       150        30  DCM       CL2             3.3492758722       -0.8956251477        0.0792271492  CLST      30              1.0000000000
       151        31  DCM       C              -0.6288259389       -2.4345223432       -1.2930015903  CLST      31              1.0000000000
       152        31  DCM       H1             -0.0452576091       -3.3743922694       -1.3862003537  CLST      31              1.0000000000
       153        31  DCM       H2             -1.0077629295       -2.3023054227       -0.2573362868  CLST      31              1.0000000000
       154        31  DCM       CL1             0.4263034879       -1.0548322226       -1.7102507485  CLST      31              1.0000000000
       155        31  DCM       CL2            -2.0118826097       -2.4974872252       -2.4224227001  CLST      31              1.0000000000
       156        32  DCM       C              -2.2682586278        2.4458278722        1.7519943127  CLST      32              1.0000000000
       157        32  DCM       H1             -3.2305871605        2.8288864761        1.3513335168  CLST      32              1.0000000000
       158        32  DCM       H2             -1.6856216914        1.9221608393        0.9642864471  CLST      32              1.0000000000
       159        32  DCM       CL1            -2.6087906811        1.2978991851        3.0781345860  CLST      32              1.0000000000
       160        32  DCM       CL2            -1.3072751861        3.8197221344        2.3719600520  CLST      32              1.0000000000
       161        33  DCM       C              -2.4974877697       -1.8341882774       -1.7421634489  CLST      33              1.0000000000
       162        33  DCM       H1             -1.7738019711       -1.6001892035       -2.5493118476  CLST      33              1.0000000000
       163        33  DCM       H2             -3.3291038223       -1.1005032084       -1.7295800221  CLST      33              1.0000000000
       164        33  DCM       CL1            -3.1690730905       -3.4646222300       -2.0213077670  CLST      33              1.0000000000
       165        33  DCM       CL2            -1.6506279243       -1.7772628959       -0.1706087353  CLST      33              1.0000000000
       166        34  DCM       C              -1.8657607302        2.6192040154        1.5497212603  CLST      34              1.0000000000
       167        34  DCM       H1             -1.6909731644        3.0498332000        2.5575429794  CLST      34              1.0000000000
       168        34  DCM       H2             -0.9052866696        2.4054804975        1.0337187725  CLST      34              1.0000000000
       169        34  DCM       CL1            -2.7907047971        1.0989186415        1.7179583066  CLST      34              1.0000000000
       170        34  DCM       CL2            -2.7970707125        3.7887967066        0.5731180991  CLST      34              1.0000000000
       171        35  DCM       C               1.9859566013        2.2267013843        0.8005621056  CLST      35              1.0000000000
       172        35  DCM       H1              1.3803277310        2.2353052417        1.7305011626  CLST      35              1.0000000000
       173        35  DCM       H2              2.8306648921        1.5103170513        0.8825775775  CLST      35              1.0000000000
       174        35  DCM       CL1             0.9387761159        1.7405225368       -0.5625714942  CLST      35              1.0000000000
       175        35  DCM       CL2             2.6337505663        3.8670201111        0.5088277333  CLST      35              1.0000000000
       176        36  DCM       C               0.7542020503        2.7187687315       -2.1242834720  CLST      36              1.0000000000
       177        36  DCM       H1              1.8492043038        2.6133369682       -2.2852295994  CLST      36              1.0000000000
       178        36  DCM       H2              0.5375110036        3.5014967433       -1.3723105861  CLST      36              1.0000000000
       179        36  DCM       CL1            -0.0279287949        3.1679724874       -3.6641614086  CLST      36              1.0000000000
       180        36  DCM       CL2             0.1035849623        1.1583875874       -1.5516154561  CLST      36              1.0000000000
       181        37  DCM       C               0.9995457521        1.2183488307        3.2396740001  CLST      37              1.0000000000
       182        37  DCM       H1              0.0840237730        1.8318674096        3.3855317018  CLST      37              1.0000000000
       183        37  DCM       H2              1.9153681190        1.8308915040        3.3752637137  CLST      37              1.0000000000
       184        37  DCM       CL1             1.0099330926       -0.1100075951        4.4338387417  CLST      37              1.0000000000
       185        37  DCM       CL2             0.9935171206        0.5416572480        1.5860823091  CLST      37              1.0000000000
       186        38  DCM       C              -2.5484053529        1.0212820274        2.3015238282  CLST      38              1.0000000000
       187        38  DCM       H1             -2.6779796569        0.9504843631        1.2002139153  CLST      38              1.0000000000
       188        38  DCM       H2             -3.4498793590        1.4442543969        2.7866619380  CLST      38              1.0000000000
       189        38  DCM       CL1            -2.2580876634       -0.6108729949        2.9637312073  CLST      38              1.0000000000
       190        38  DCM       CL2            -1.1560980917        2.0799923768        2.6587083859  CLST      38              1.0000000000
       191        39  DCM       C               1.4122975967        0.8645761562        1.4398466331  CLST      39              1.0000000000
       192        39  DCM       H1              2.1646154672        0.2167209974        1.9361475693  CLST      39              1.0000000000
       193        39  DCM       H2              1.8350963770        1.3479886917        0.5346199933  CLST      39              1.0000000000
       194        39  DCM       CL1             0.8930557255        2.1342271773        2.5839321831  CLST      39              1.0000000000
       195        39  DCM       CL2             0.0193363771       -0.1413079379        0.9588422010  CLST      39              1.0000000000
       196        40  DCM       C               2.6129373579        2.6670347550        0.8963482056  CLST      40              1.0000000000
       197        40  DCM       H1              3.2174996099        1.7619573477        0.6770627372  CLST      40              1.0000000000
       198        40  DCM       H2              2.2156994543        3.1174357712       -0.0371770852  CLST      40              1.0000000000
       199        40  DCM       CL1             1.2418075156        2.2106004814        1.9468378313  CLST      40              1.0000000000
       200        40  DCM       CL2             3.6449638049        3.8664194107        1.7275926599  CLST      40              1.0000000000
       201        41  DCM       C              -0.4251091836       -2.1015075703       -3.3325756024  CLST      41              1.0000000000
       202        41  DCM       H1              0.0687549262       -1.2681070142       -2.7906080483  CLST      41              1.0000000000
       203        41  DCM       H2             -1.5277378114       -2.0553053914       -3.2220020722  CLST      41              1.0000000000
       204        41  DCM       CL1             0.1434265838       -3.6597586137       -2.6682583527  CLST      41              1.0000000000
       205        41  DCM       CL2            -0.0154584488       -1.9884074043       -5.0672819416  CLST      41              1.0000000000
       206        42  DCM       C              -1.5340240703        2.1519575527        2.5580275955  CLST      42              1.0000000000
       207        42  DCM       H1             -2.3703127575        1.4443457507        2.7359545727  CLST      42              1.0000000000
       208        42  DCM       H2             -0.6806822185        1.6470064858        2.0576184311  CLST      42              1.0000000000
       209        42  DCM       CL1            -2.1101793093        3.4895521614        1.5226935009  CLST      42              1.0000000000
       210        42  DCM       CL2            -0.9776846959        2.7998541954        4.1249519429  CLST      42              1.0000000000
       211        43  DCM       C              -0.7402113146       -3.0309192183       -0.7410084184  CLST      43              1.0000000000
       212        43  DCM       H1              0.2886445314       -3.2402941929       -1.1003418771  CLST      43              1.0000000000
       213        43  DCM       H2             -1.4710154016       -3.7264494884       -1.2010620080  CLST      43              1.0000000000
       214        43  DCM       CL1            -0.7966642034       -3.2284883202        1.0341444650  CLST      43              1.0000000000
       215        43  DCM       CL2            -1.1737150247       -1.3551309588       -1.1836285957  CLST      43              1.0000000000
       216        44  DCM       C               1.0350173816       -0.5057620174        2.7492737040  CLST      44              1.0000000000
       217        44  DCM       H1              0.8104917798        0.3110658665        3.4682532254  CLST      44              1.0000000000
       218        44  DCM       H2              2.1054266773       -0.7926968814        2.7944957576  CLST      44              1.0000000000
       219        44  DCM       CL1             0.0373489971       -1.9314929542        3.1603939332  CLST      44              1.0000000000
       220        44  DCM       CL2             0.6571385505        0.0518886092        1.0928123766  CLST      44              1.0000000000
       221        45  DCM       C               0.7333933901       -2.2653698021       -0.8528780549  CLST      45              1.0000000000
       222        45  DCM       H1              1.7670394376       -2.6642261919       -0.9117749449  CLST      45              1.0000000000
       223        45  DCM       H2              0.1384714377       -2.5717434449       -1.7384999056  CLST      45              1.0000000000
       224        45  DCM       CL1            -0.0550129315       -2.8967967405        0.6210188360  CLST      45              1.0000000000
       225        45  DCM       CL2             0.7942351690       -0.4808155179       -0.7898111427  CLST      45              1.0000000000
       226        46  DCM       C               1.8917068096        1.5908833255        1.9491836118  CLST      46              1.0000000000
       227        46  DCM       H1              0.8346218974        1.9193267883        1.8705092736  CLST      46              1.0000000000
       228        46  DCM       H2              2.0619093712        1.0227593995        2.8885131481  CLST      46              1.0000000000
       229        46  DCM       CL1             2.2717922859        0.5406820065        0.5549383392  CLST      46              1.0000000000
       230        46  DCM       CL2             2.9548931055        3.0271818815        1.9389103142  CLST      46              1.0000000000
       231        47  DCM       C               0.2008647607       -0.4873213973       -3.4024867260  CLST      47              1.0000000000
       232        47  DCM       H1              1.0903689127       -0.1961887752       -3.9990306596  CLST      47              1.0000000000
       233        47  DCM       H2             -0.6839651760       -0.6461064384       -4.0552952361  CLST      47              1.0000000000
       234        47  DCM       CL1             0.5571521973       -2.0059678160       -2.5279008464  CLST      47              1.0000000000
       235        47  DCM       CL2            -0.1656398194        0.8172799590       -2.2364526739  CLST      47              1.0000000000
       236        48  DCM       C              -0.7006156023        0.4057677251        1.2932814521  CLST      48              1.0000000000
       237        48  DCM       H1             -1.5315249414        0.6798402080        0.6091628305  CLST      48              1.0000000000
       238        48  DCM       H2             -0.6299713036       -0.6958720540        1.4170741128  CLST      48              1.0000000000
       239        48  DCM       CL1            -0.9918003846        1.1548921217        2.8888476239  CLST      48              1.0000000000
       240        48  DCM       CL2             0.8350792041        1.0143973484        0.6132795225  CLST      48              1.0000000000
       241        49  DCM       C               0.4330497798       -0.7207458922       -1.6991084244  CLST      49              1.0000000000
       242        49  DCM       H1             -0.4521462989       -0.7456011755       -1.0285863907  CLST      49              1.0000000000
       243        49  DCM       H2              1.3288325873       -1.1421441437       -1.1950682393  CLST      49              1.0000000000
       244        49  DCM       CL1             0.0830162883       -1.6752981177       -3.1690674785  CLST      49              1.0000000000
       245        49  DCM       CL2             0.7688308267        0.9719500888       -2.1540862797  CLST      49              1.0000000000
       246        50  DCM       C              -0.9839122563        0.2777650208       -0.5311763143  CLST      50              1.0000000000
       247        50  DCM       H1             -1.1673373949       -0.7921924472       -0.7652267189  CLST      50              1.0000000000
       248        50  DCM       H2             -1.7536948018        0.9241858369       -1.0008106836  CLST      50              1.0000000000
       249        50  DCM       CL1            -1.0372606502        0.5054109208        1.2420913184  CLST      50              1.0000000000
       250        50  DCM       CL2             0.6189772904        0.7511056802       -1.1638135616  CLST      50              1.0000000000
       251        51  DCM       C               0.6227591754        2.6384111999        2.5602122524  CLST      51              1.0000000000
       252        51  DCM       H1              0.5718081856        1.5433635178        2.3936675415  CLST      51              1.0000000000
       253        51  DCM       H2              0.0767966538        2.9245025792        3.4811660540  CLST      51              1.0000000000
       254        51  DCM       CL1             2.3291204837        3.1274655691        2.7244753159  CLST      51              1.0000000000
       255        51  DCM       CL2            -0.1148198667        3.4755170319        1.1684045947  CLST      51              1.0000000000
       256        52  DCM       C               2.5560662081        2.2713990300        0.7103648029  CLST      52              1.0000000000
       257        52  DCM       H1              2.4955571840        3.3548262709        0.4819666903  CLST      52              1.0000000000
       258        52  DCM       H2              1.9467467307        2.0206137542        1.6027544560  CLST      52              1.0000000000
       259        52  DCM       CL1             1.9446449709        1.3412508172       -0.6871266639  CLST      52              1.0000000000
       260        52  DCM       CL2             4.2631102356        1.8467220441        1.0203389130  CLST      52              1.0000000000
       261        53  DCM       C              -0.2367638686        1.1965567564        0.3036410216  CLST      53              1.0000000000
       262        53  DCM       H1              0.0073569339        2.1920108027       -0.1212445910  CLST      53              1.0000000000
       263        53  DCM       H2             -1.3281906706        1.0029972074        0.2564531947  CLST      53              1.0000000000
       264        53  DCM       CL1             0.6217343678       -0.0615428722       -0.6296903260  CLST      53              1.0000000000
       265        53  DCM       CL2             0.2895717862        1.1449590729        2.0103672388  CLST      53              1.0000000000
       266        54  DCM       C              -1.6219702899       -0.7766201141        0.5077722130  CLST      54              1.0000000000
       267        54  DCM       H1             -1.1709762586       -0.3842737988        1.4436257743  CLST      54              1.0000000000
       268        54  DCM       H2             -1.9811512938        0.0510235962       -0.1396317353  CLST      54              1.0000000000
       269        54  DCM       CL1            -0.3896554265       -1.7153017443       -0.3814893687  CLST      54              1.0000000000
       270        54  DCM       CL2            -3.0023469361       -1.8339838881        0.9208300310  CLST      54              1.0000000000
       271        55  DCM       C              -0.1623626900        3.1004667773        0.0473139573  CLST      55              1.0000000000
       272        55  DCM       H1             -0.5980404190        2.0831582677        0.0505205700  CLST      55              1.0000000000
       273        55  DCM       H2             -0.9589321024        3.8732526316        0.0575541738  CLST      55              1.0000000000
       274        55  DCM       CL1             0.8428139274        3.3035131545        1.5060404566  CLST      55              1.0000000000
       275        55  DCM       CL2             0.8361497226        3.3093092924       -1.4205680283  CLST      55              1.0000000000
       276        56  DCM       C               2.6097913400       -2.8316285115       -1.0057135370  CLST      56              1.0000000000
       277        56  DCM       H1              1.6901188657       -2.8361677264       -1.6280527576  CLST      56              1.0000000000
       278        56  DCM       H2              2.9957880056       -1.7983688783       -0.8732993599  CLST      56              1.0000000000
       279        56  DCM       CL1             2.2270764602       -3.5208221781        0.5985882528  CLST      56              1.0000000000
       280        56  DCM       CL2             3.8626531672       -3.8235787816       -1.8091106251  CLST      56              1.0000000000
       281        57  DCM       C               1.7516231784        1.7881309155       -2.1884840900  CLST      57              1.0000000000
       282        57  DCM       H1              1.6179543698        2.2289657499       -3.1984096648  CLST      57              1.0000000000
       283        57  DCM       H2              2.1034472690        0.7370551502       -2.2566082452  CLST      57              1.0000000000
       284        57  DCM       CL1             0.1865739317        1.8209790148       -1.3285339035  CLST      57              1.0000000000
       285        57  DCM       CL2             2.9554965240        2.7529370882       -1.2868807957  CLST      57              1.0000000000
       286        58  DCM       C               0.5426361734        0.2658896163       -2.6662171825  CLST      58              1.0000000000
       287        58  DCM       H1              0.5131602474        1.3046956470       -3.0570709835  CLST      58              1.0000000000
       288        58  DCM       H2             -0.3247685958        0.0631722210       -2.0046443501  CLST      58              1.0000000000
       289        58  DCM       CL1             2.0498271541        0.0384397012       -1.7317201756  CLST      58              1.0000000000
       290        58  DCM       CL2             0.4942421322       -0.8733989917       -4.0424253427  CLST      58              1.0000000000
       291        59  DCM       C              -2.1516056152       -3.2756116981        1.1477220292  CLST      59              1.0000000000
       292        59  DCM       H1             -3.0589940673       -2.6353581497        1.1160521065  CLST      59              1.0000000000
       293        59  DCM       H2             -2.2636936996       -4.1603841397        0.4888840091  CLST      59              1.0000000000
       294        59  DCM       CL1            -0.7446620817       -2.3166619167        0.6043351452  CLST      59              1.0000000000
       295        59  DCM       CL2            -1.8955400318       -3.8340110478        2.8249128462  CLST      59              1.0000000000
       296        60  DCM       C              -1.1429489072        0.7229074596       -0.8513650748  CLST      60              1.0000000000
       297        60  DCM       H1             -1.1902580315        1.6011168191       -0.1753992348  CLST      60              1.0000000000
       298        60  DCM       H2             -1.8975703494        0.8063178597       -1.6617378735  CLST      60              1.0000000000
       299        60  DCM       CL1             0.4852347484        0.6479551435       -1.5821851489  CLST      60              1.0000000000
       300        60  DCM       CL2            -1.4583883795       -0.7656095083        0.0876098975  CLST      60              1.0000000000
       301        61  DCM       C               1.3659301042       -0.8352386010       -0.6058563832  CLST      61              1.0000000000
       302        61  DCM       H1              2.2913574886       -0.2390973025       -0.7529929907  CLST      61              1.0000000000
       303        61  DCM       H2              0.6295968254       -0.2835899755        0.0158467610  CLST      61              1.0000000000
       304        61  DCM       CL1             0.6403582782       -1.1913256241       -2.2002932838  CLST      61              1.0000000000
       305        61  DCM       CL2             1.7855020134       -2.3634324636        0.2155250824  CLST      61              1.0000000000
       306        62  DCM       C              -1.2407188641        1.7946617402        1.5147724309  CLST      62              1.0000000000
       307        62  DCM       H1             -2.2164033232        1.2711937208        1.4247465881  CLST      62              1.0000000000
       308        62  DCM       H2             -1.2636904678        2.7772303713        0.9996849900  CLST      62              1.0000000000
       309        62  DCM       CL1            -0.8795679419        2.0502809557        3.2451328081  CLST      62              1.0000000000
       310        62  DCM       CL2             0.0324038897        0.7809488510        0.7795799179  CLST      62              1.0000000000
       311        63  DCM       C              -2.8076231891        2.6641546733       -2.4112697878  CLST      63              1.0000000000
       312        63  DCM       H1             -3.2459609865        3.4028472458       -3.1141355454  CLST      63              1.0000000000
       313        63  DCM       H2             -3.5374723918        1.8619788122       -2.1727044165  CLST      63              1.0000000000
       314        63  DCM       CL1            -1.3555232920        1.9356561514       -3.1554957935  CLST      63              1.0000000000
       315        63  DCM       CL2            -2.3500012983        3.5009656647       -0.9022283271  CLST      63              1.0000000000
       316        64  DCM       C               0.1269472865       -1.0596185069        0.6050988866  CLST      64              1.0000000000
       317        64  DCM       H1             -0.2472804779       -0.7604601495        1.6061112726  CLST      64              1.0000000000
       318        64  DCM       H2              0.0332066158       -0.2258278041       -0.1225417745  CLST      64              1.0000000000
       319        64  DCM       CL1             1.8473469325       -1.5253031184        0.7390820813  CLST      64              1.0000000000
       320        64  DCM       CL2            -0.8356334423       -2.4466626530        0.0264034496  CLST      64              1.0000000000
       321        65  DCM       C              -2.0880480659       -2.4618397303        1.7387631464  CLST      65              1.0000000000
       322        65  DCM       H1             -2.6643428311       -2.9064721610        2.5766413508  CLST      65              1.0000000000
       323        65  DCM       H2             -2.6891083652       -2.4475434763        0.8061723766  CLST      65              1.0000000000
       324        65  DCM       CL1            -1.6413877328       -0.7883491764        2.1699093705  CLST      65              1.0000000000
       325        65  DCM       CL2            -0.6085538559       -3.4258982245        1.4707665333  CLST      65              1.0000000000
       326        66  DCM       C               1.0077644288       -1.5770601763       -1.9712138448  CLST      66              1.0000000000
       327        66  DCM       H1              0.8523978065       -1.8237781315       -0.8989959581  CLST      66              1.0000000000
       328        66  DCM       H2              0.8447779238       -2.4666969225       -2.6139636034  CLST      66              1.0000000000
       329        66  DCM       CL1            -0.1442281884       -0.2981469802       -2.4464036200  CLST      66              1.0000000000
       330        66  DCM       CL2             2.6836049097       -1.0010689403       -2.1979658218  CLST      66              1.0000000000
       331        67  DCM       C               1.2657925964        0.4116367555       -0.4287173800  CLST      67              1.0000000000
       332        67  DCM       H1              0.4534362216        1.0314631326       -0.8617604737  CLST      67              1.0000000000
       333        67  DCM       H2              2.0928009319        0.2706029939       -1.1546460166  CLST      67              1.0000000000
       334        67  DCM       CL1             1.9091475620        1.2262251577        1.0212350590  CLST      67              1.0000000000
       335        67  DCM       CL2             0.6030765313       -1.1827087501        0.0217553315  CLST      67              1.0000000000
       336        68  DCM       C              -1.4397147682       -0.3731692423       -2.2943495454  CLST      68              1.0000000000
       337        68  DCM       H1             -1.5265883604        0.0397191166       -1.2672457351  CLST      68              1.0000000000
       338        68  DCM       H2             -2.4184125617       -0.7287124155       -2.6694751291  CLST      68              1.0000000000
       339        68  DCM       CL1            -0.8274062730        0.8994018845       -3.3862155400  CLST      68              1.0000000000
       340        68  DCM       CL2            -0.3175141662       -1.7567885755       -2.2742597643  CLST      68              1.0000000000
       341        69  DCM       C              -0.0763259169        3.3430593395       -3.0413180890  CLST      69              1.0000000000
       342        69  DCM       H1             -1.1618691907        3.1304332277       -2.9508276962  CLST      69              1.0000000000
       343        69  DCM       H2              0.1007868639        4.4099738052       -3.2910562110  CLST      69              1.0000000000
       344        69  DCM       CL1             0.7252189731        2.9684198493       -1.4885381898  CLST      69              1.0000000000
       345        69  DCM       CL2             0.6084504104        2.3238790916       -4.3394731900  CLST      69              1.0000000000
       346        70  DCM       C              -1.4052302210       -0.4377788190        3.9331341903  CLST      70              1.0000000000
       347        70  DCM       H1             -2.0369295536       -0.4368741118        4.8462207161  CLST      70              1.0000000000
       348        70  DCM       H2             -1.7447867061        0.3347899035        3.2149342555  CLST      70              1.0000000000
       349        70  DCM       CL1             0.2868197201       -0.1003488877        4.3936423323  CLST      70              1.0000000000
       350        70  DCM       CL2            -1.5115742950       -2.0389411781        3.1508091865  CLST      70              1.0000000000
       351        71  DCM       C              -1.9325511326       -2.7958545852        2.3202307156  CLST      71              1.0000000000
       352        71  DCM       H1             -1.7507459634       -3.7709724057        1.8207246601  CLST      71              1.0000000000
       353        71  DCM       H2             -0.9930313314       -2.3879129202        2.7461135549  CLST      71              1.0000000000
       354        71  DCM       CL1            -2.5793862264       -1.6427106748        1.1181557311  CLST      71              1.0000000000
       355        71  DCM       CL2            -3.1191876511       -3.0307536512        3.6357494382  CLST      71              1.0000000000
       356        72  DCM       C              -0.5846773036        1.2727140205        1.9290973272  CLST      72              1.0000000000
       357        72  DCM       H1              0.2308928417        0.7985657877        2.5171977802  CLST      72              1.0000000000
       358        72  DCM       H2             -0.2637466098        2.2506836779        1.5144570405  CLST      72              1.0000000000
       359        72  DCM       CL1            -1.0363298769        0.1888588002        0.5828943291  CLST      72              1.0000000000
       360        72  DCM       CL2            -1.9952394435        1.5287551684        2.9946793705  CLST      72              1.0000000000
       361        73  DCM       C              -3.3746443035       -2.0327684535        0.0196324211  CLST      73              1.0000000000
       362        73  DCM       H1             -3.4317886644       -2.9366470841       -0.6224725379  CLST      73              1.0000000000
       363        73  DCM       H2             -4.3585536036       -1.5220880084        0.0777229736  CLST      73              1.0000000000
       364        73  DCM       CL1            -2.8767972471       -2.5185782261        1.6658794980  CLST      73              1.0000000000
       365        73  DCM       CL2            -2.1705648437       -0.9047338264       -0.6680431040  CLST      73              1.0000000000
       366        74  DCM       C              -2.1449684047        1.3695349178       -2.4640012158  CLST      74              1.0000000000
       367        74  DCM       H1             -1.1001991842        1.2851222757       -2.1004786938  CLST      74              1.0000000000
       368        74  DCM       H2             -2.6600977149        0.3861347712       -2.4275854176  CLST      74              1.0000000000
       369        74  DCM       CL1            -2.1282686445        1.9541236915       -4.1523616153  CLST      74              1.0000000000
       370        74  DCM       CL2            -3.0248001643        2.5275151276       -1.4284299785  CLST      74              1.0000000000
       371        75  DCM       C              -2.1141836220       -1.8642567577       -0.5831639424  CLST      75              1.0000000000
       372        75  DCM       H1             -1.3095220679       -2.5768396157       -0.8579334020  CLST      75              1.0000000000
       373        75  DCM       H2             -3.1095289653       -2.3503763845       -0.6312538087  CLST      75              1.0000000000
       374        75  DCM       CL1            -1.8341207215       -1.2861139538        1.0829527570  CLST      75              1.0000000000
       375        75  DCM       CL2            -2.0912507595       -0.4899735054       -1.7208136127  CLST      75              1.0000000000
       376        76  DCM       C              -1.6763266871        0.6599461055        2.6511201549  CLST      76              1.0000000000
       377        76  DCM       H1             -1.0103126838        1.2887074135        2.0228102019  CLST      76              1.0000000000
       378        76  DCM       H2             -2.5893279122        0.3657802602        2.0914996353  CLST      76              1.0000000000
       379        76  DCM       CL1            -0.7940793665       -0.8137986389        3.1434113299  CLST      76              1.0000000000
       380        76  DCM       CL2            -2.1573230092        1.5924979361        4.0977277418  CLST      76              1.0000000000
       381        77  DCM       C               0.8432688758        1.3631387618        0.2362623470  CLST      77              1.0000000000
       382        77  DCM       H1              1.6175468824        1.9484497618       -0.3070706465  CLST      77              1.0000000000
       383        77  DCM       H2              0.2613911149        2.0112448714        0.9206620133  CLST      77              1.0000000000
       384        77  DCM       CL1            -0.2682505122        0.6250314211       -0.9533158048  CLST      77              1.0000000000
       385        77  DCM       CL2             1.6454250969        0.0830711237        1.1907927132  CLST      77              1.0000000000
       386        78  DCM       C              -3.0830155418       -1.8039131209       -1.5603416924  CLST      78              1.0000000000
       387        78  DCM       H1             -2.8035486975       -1.2477537530       -0.6417066305  CLST      78              1.0000000000
       388        78  DCM       H2             -4.0221012025       -2.3758563692       -1.4100751504  CLST      78              1.0000000000
       389        78  DCM       CL1            -3.3124802532       -0.6447142942       -2.8964973220  CLST      78              1.0000000000
       390        78  DCM       CL2            -1.7728537628       -2.9412557101       -1.9737546935  CLST      78              1.0000000000
       391        79  DCM       C               1.9449575616        0.0448174836        2.4499723577  CLST      79              1.0000000000
       392        79  DCM       H1              2.0768903284        0.0917268654        1.3491166994  CLST      79              1.0000000000
       393        79  DCM       H2              1.0754950068        0.6558681031        2.7739867216  CLST      79              1.0000000000
       394        79  DCM       CL1             3.4231157059        0.6727434878        3.2349861649  CLST      79              1.0000000000
       395        79  DCM       CL2             1.6779877054       -1.6564703151        2.9325830485  CLST      79              1.0000000000
       396        80  DCM       C               0.7450394675       -2.7889670084       -1.4635363092  CLST      80              1.0000000000
       397        80  DCM       H1              0.0180951192       -2.8477593283       -0.6237104996  CLST      80              1.0000000000
       398        80  DCM       H2              1.0027421836       -3.7996499625       -1.8399530774  CLST      80              1.0000000000
       399        80  DCM       CL1             2.2337412445       -1.9856798430       -0.8842530540  CLST      80              1.0000000000
       400        80  DCM       CL2             0.0205461276       -1.8388158042       -2.7943051444  CLST      80              1.0000000000
       401        81  DCM       C              -1.0289835098        1.1825127900       -2.8021664818  CLST      81              1.0000000000
       402        81  DCM       H1             -0.2981276953        1.0752348724       -1.9735745097  CLST      81              1.0000000000
       403        81  DCM       H2             -0.9094378969        2.1602983749       -3.3155691118  CLST      81              1.0000000000
       404        81  DCM       CL1            -0.7656995840       -0.1322124424       -3.9838348873  CLST      81              1.0000000000
       405        81  DCM       CL2            -2.6831866543        1.0667224048       -2.1338806829  CLST      81              1.0000000000
       406        82  DCM       C               1.2784948349       -0.5883697450       -1.2044509136  CLST      82              1.0000000000
       407        82  DCM       H1              2.3331308156       -0.7206126440       -0.8829673838  CLST      82              1.0000000000
       408        82  DCM       H2              0.5808613227       -1.0996726145       -0.5075122012  CLST      82              1.0000000000
       409        82  DCM       CL1             0.8937324111        1.1566735728       -1.2355320052  CLST      82              1.0000000000
       410        82  DCM       CL2             1.0752550686       -1.2809994450       -2.8401035032  CLST      82              1.0000000000
       411        83  DCM       C               0.1534842887        2.5306676825       -1.7547243367  CLST      83              1.0000000000
       412        83  DCM       H1              1.2387907531        2.4860446529       -1.5254805869  CLST      83              1.0000000000
       413        83  DCM       H2             -0.4303988507        1.9098290984       -1.0422148939  CLST      83              1.0000000000
       414        83  DCM       CL1            -0.3980223442        4.2264207147       -1.6328193280  CLST      83              1.0000000000
       415        83  DCM       CL2            -0.1125024403        1.9189836003       -3.4128108917  CLST      83              1.0000000000
       416        84  DCM       C              -2.3473844126       -0.7690351206        0.6850386492  CLST      84              1.0000000000
       417        84  DCM       H1             -2.6945730807       -1.5203835619       -0.0556172033  CLST      84              1.0000000000
       418        84  DCM       H2             -2.1666595400       -1.2384930248        1.6741020817  CLST      84              1.0000000000
       419        84  DCM       CL1            -0.8253375232       -0.0410668986        0.0998765934  CLST      84              1.0000000000
       420        84  DCM       CL2            -3.5942299114        0.4992349957        0.8581295663  CLST      84              1.0000000000
       421        85  DCM       C               2.7798284265        0.7762162476       -2.1713140738  CLST      85              1.0000000000
       422        85  DCM       H1              3.3516743885        1.0909285596       -1.2744211032  CLST      85              1.0000000000
       423        85  DCM       H2              2.6589895498       -0.3257117325       -2.1988415431  CLST      85              1.0000000000
       424        85  DCM       CL1             1.1621237759        1.5349867762       -2.1292239430  CLST      85              1.0000000000
       425        85  DCM       CL2             3.6637867943        1.2985968965       -3.6335889411  CLST      85              1.0000000000
       426        86  DCM       C              -1.7857905740        2.1448470955       -0.8540584085  CLST      86              1.0000000000
       427        86  DCM       H1             -1.3491275651        1.6435295489       -1.7438302809  CLST      86              1.0000000000
       428        86  DCM       H2             -2.8893923645        2.0341596593       -0.8397717624  CLST      86              1.0000000000
       429        86  DCM       CL1            -1.1069916093        1.4051669450        0.6245380292  CLST      86              1.0000000000
       430        86  DCM       CL2            -1.3841644077        3.8851349840       -0.9030774924  CLST      86              1.0000000000
       431        87  DCM       C              -0.5696927275       -1.9114591296       -0.7474216282  CLST      87              1.0000000000
       432        87  DCM       H1             -1.3965279223       -2.5621337201       -0.3920439204  CLST      87              1.0000000000
       433        87  DCM       H2             -0.6681684441       -0.8831487609       -0.3395753200  CLST      87              1.0000000000
       434        87  DCM       CL1            -0.6140507766       -1.8359808842       -2.5323823200  CLST      87              1.0000000000
       435        87  DCM       CL2             0.9871928215       -2.6057156856       -0.2100418854  CLST      87              1.0000000000
       436        88  DCM       C               2.6320402950        1.5945732488        2.6089785253  CLST      88              1.0000000000
       437        88  DCM       H1              3.4545369830        1.7655828263        3.3354319556  CLST      88              1.0000000000
       438        88  DCM       H2              2.8269327730        2.1254396654        1.6532017288  CLST      88              1.0000000000
       439        88  DCM       CL1             1.1012743103        2.1983121274        3.3069670196  CLST      88              1.0000000000
       440        88  DCM       CL2             2.5010906251       -0.1588703007        2.2896488889  CLST      88              1.0000000000
       441        89  DCM       C              -3.0755602052        1.8300262684        2.3059640354  CLST      89              1.0000000000
       442        89  DCM       H1             -2.2133422346        1.8979764170        1.6108825763  CLST      89              1.0000000000
       443        89  DCM       H2             -3.9912197734        1.5011527973        1.7734759163  CLST      89              1.0000000000
       444        89  DCM       CL1            -2.7019514517        0.6498100389        3.5930304185  CLST      89              1.0000000000
       445        89  DCM       CL2            -3.3680999459        3.4383166821        3.0264397730  CLST      89              1.0000000000
       446        90  DCM       C               1.8945722584        0.8622873718       -0.5220167192  CLST      90              1.0000000000
       447        90  DCM       H1              1.1030516997        1.5811885177       -0.8217684655  CLST      90              1.0000000000
       448        90  DCM       H2              1.6637839588        0.4045006544        0.4631355673  CLST      90              1.0000000000
       449        90  DCM       CL1             2.0133204801       -0.4316839858       -1.7508952827  CLST      90              1.0000000000
       450        90  DCM       CL2             3.4509308691        1.7322965910       -0.4068048389  CLST      90              1.0000000000
       451        91  DCM       C              -1.0099988175       -3.0414381229       -1.7498725850  CLST      91              1.0000000000
       452        91  DCM       H1             -1.0025601776       -3.6472098417       -0.8208516093  CLST      91              1.0000000000
       453        91  DCM       H2             -0.2715925320       -3.4256551725       -2.4826488491  CLST      91              1.0000000000
       454        91  DCM       CL1            -2.6419159047       -3.0983435361       -2.4687419770  CLST      91              1.0000000000
       455        91  DCM       CL2            -0.5934227138       -1.3588676371       -1.3415014744  CLST      91              1.0000000000
       456        92  DCM       C               1.0162301838       -2.6008746907       -2.9946736025  CLST      92              1.0000000000
       457        92  DCM       H1              0.7146066114       -1.8999825660       -2.1878655960  CLST      92              1.0000000000
       458        92  DCM       H2              0.8839372975       -2.1381744347       -3.9952431300  CLST      92              1.0000000000
       459        92  DCM       CL1             2.7335369611       -3.0362312899       -2.7771999698  CLST      92              1.0000000000
       460        92  DCM       CL2             0.0101977974       -4.0720061311       -2.8958719317  CLST      92              1.0000000000
       461        93  DCM       C               0.6536711758       -1.7813584326        1.8600647473  CLST      93              1.0000000000
       462        93  DCM       H1              0.8059381790       -0.6960321343        2.0281734893  CLST      93              1.0000000000
       463        93  DCM       H2              1.3445407077       -2.1615951902        1.0802237834  CLST      93              1.0000000000
       464        93  DCM       CL1            -1.0224073729       -2.0516354166        1.3167254016  CLST      93              1.0000000000
       465        93  DCM       CL2             0.9428292311       -2.6539223161        3.3931957816  CLST      93              1.0000000000
       466        94  DCM       C               2.9642474134       -1.2810693556       -0.7319013197  CLST      94              1.0000000000
       467        94  DCM       H1              3.5138726705       -0.3176968470       -0.6799134480  CLST      94              1.0000000000
       468        94  DCM       H2              2.3600401736       -1.4472098735        0.1848637226  CLST      94              1.0000000000
       469        94  DCM       CL1             1.8763900728       -1.2577646416       -2.1481529931  CLST      94              1.0000000000
       470        94  DCM       CL2             4.1441210188       -2.6101444942       -0.9004224562  CLST      94              1.0000000000
       471        95  DCM       C               1.3267470594       -2.3955727200       -0.9386373824  CLST      95              1.0000000000
       472        95  DCM       H1              0.2648717779       -2.6268598163       -0.7102682166  CLST      95              1.0000000000
       473        95  DCM       H2              1.9908099750       -3.2323644535       -0.6427446294  CLST      95              1.0000000000
       474        95  DCM       CL1             1.8043265279       -0.9375801025       -0.0321806021  CLST      95              1.0000000000
       475        95  DCM       CL2             1.4922552964       -2.0982862474       -2.6913208298  CLST      95              1.0000000000
       476        96  DCM       C              -2.0416691621       -0.0656182638       -0.5109341295  CLST      96              1.0000000000
       477        96  DCM       H1             -1.8507862776       -0.4720620769        0.5033643181  CLST      96              1.0000000000
       478        96  DCM       H2             -1.9512272847        1.0412399314       -0.5186288237  CLST      96              1.0000000000
       479        96  DCM       CL1            -0.8505826331       -0.7578455213       -1.6506672866  CLST      96              1.0000000000
       480        96  DCM       CL2            -3.6968739886       -0.5200060998       -1.0074616176  CLST      96              1.0000000000
       481        97  DCM       C              -2.9435260378        1.9047537872       -0.0190360706  CLST      97              1.0000000000
       482        97  DCM       H1             -3.5770146632        2.8139139571       -0.0522617817  CLST      97              1.0000000000
       483        97  DCM       H2             -3.2352637251        1.2506763336        0.8277318157  CLST      97              1.0000000000
       484        97  DCM       CL1            -3.1379032598        1.0018966340       -1.5468808513  CLST      97              1.0000000000
       485        97  DCM       CL2            -1.2380014678        2.3930819356        0.1827126897  CLST      97              1.0000000000
       486        98  DCM       C               1.7069233084       -0.3615584017        2.1978567001  CLST      98              1.0000000000
       487        98  DCM       H1              2.3333792008       -0.7146585989        1.3528699499  CLST      98              1.0000000000
       488        98  DCM       H2              2.0648724486        0.6204915546        2.5709471878  CLST      98              1.0000000000
       489        98  DCM       CL1             0.0172712093       -0.1942533034        1.6439471253  CLST      98              1.0000000000
       490        98  DCM       CL2             1.7907049452       -1.5495721802        3.5270161524  CLST      98              1.0000000000
