* INITIAL
*  DATE:     6/28/26      1:57:13      CREATED BY USER: boittier
*
       460  EXT
         1         1  DCM       C              -2.8192630516      -11.0695031560        3.2404038101  CLST      1               1.0000000000
         2         1  DCM       H1             -2.5589008822      -10.9481774652        4.3125274123  CLST      1               1.0000000000
         3         1  DCM       H2             -3.1545769739      -12.1060281851        3.0226845787  CLST      1               1.0000000000
         4         1  DCM       CL1            -4.1330580302       -9.9325867153        2.8204520692  CLST      1               1.0000000000
         5         1  DCM       CL2            -1.3762210187      -10.7135682534        2.2518766182  CLST      1               1.0000000000
         6         2  DCM       C              10.6530767587        4.2224339554        0.1377799366  CLST      2               1.0000000000
         7         2  DCM       H1             11.3986127411        4.2352046656        0.9603051388  CLST      2               1.0000000000
         8         2  DCM       H2              9.6672308238        4.5944189141        0.4867745894  CLST      2               1.0000000000
         9         2  DCM       CL1            11.2325471432        5.2742955403       -1.1826104297  CLST      2               1.0000000000
        10         2  DCM       CL2            10.4699843467        2.5450525184       -0.4521395507  CLST      2               1.0000000000
        11         3  DCM       C               3.1393414719       -3.3512385583       -9.9815093407  CLST      3               1.0000000000
        12         3  DCM       H1              3.6324598595       -4.0877733477      -10.6500901539  CLST      3               1.0000000000
        13         3  DCM       H2              3.2607284241       -2.3165163005      -10.3655220780  CLST      3               1.0000000000
        14         3  DCM       CL1             1.3963941119       -3.7369016323       -9.8823901079  CLST      3               1.0000000000
        15         3  DCM       CL2             3.8816370954       -3.4540386749       -8.3590803461  CLST      3               1.0000000000
        16         4  DCM       C               5.8354426299       -5.8749155560       -1.0906568049  CLST      4               1.0000000000
        17         4  DCM       H1              6.0150392339       -4.9595924433       -0.4907493565  CLST      4               1.0000000000
        18         4  DCM       H2              5.9161221522       -5.6715748243       -2.1770659738  CLST      4               1.0000000000
        19         4  DCM       CL1             7.0519716416       -7.1033129378       -0.6432457446  CLST      4               1.0000000000
        20         4  DCM       CL2             4.1911892914       -6.4759519231       -0.7484667018  CLST      4               1.0000000000
        21         5  DCM       C             -18.4210257101        3.1417868269       -5.1764534312  CLST      5               1.0000000000
        22         5  DCM       H1            -17.8053497515        2.5225501594       -5.8602251453  CLST      5               1.0000000000
        23         5  DCM       H2            -17.9914986432        3.1395338641       -4.1535760514  CLST      5               1.0000000000
        24         5  DCM       CL1           -18.4611161608        4.8185562602       -5.7933872689  CLST      5               1.0000000000
        25         5  DCM       CL2           -20.0781936829        2.4748431315       -5.1183143822  CLST      5               1.0000000000
        26         6  DCM       C              -3.8744376283       -7.3669463426       -0.1962761845  CLST      6               1.0000000000
        27         6  DCM       H1             -3.5315507548       -6.3135509038       -0.1151553928  CLST      6               1.0000000000
        28         6  DCM       H2             -4.4057369365       -7.6840421167        0.7257311666  CLST      6               1.0000000000
        29         6  DCM       CL1            -4.9936797355       -7.5145252998       -1.5808436172  CLST      6               1.0000000000
        30         6  DCM       CL2            -2.4581067260       -8.4278466111       -0.4438844470  CLST      6               1.0000000000
        31         7  DCM       C              -3.1889661337       -7.0812798700        4.6793599836  CLST      7               1.0000000000
        32         7  DCM       H1             -4.1711251203       -7.4998170980        4.9833469777  CLST      7               1.0000000000
        33         7  DCM       H2             -2.4261357664       -7.8815818310        4.5880984121  CLST      7               1.0000000000
        34         7  DCM       CL1            -3.3658257198       -6.2729098827        3.0976698442  CLST      7               1.0000000000
        35         7  DCM       CL2            -2.6532357219       -5.9003539715        5.9067462653  CLST      7               1.0000000000
        36         8  DCM       C               4.4050179574        2.9531642671        4.5217005506  CLST      8               1.0000000000
        37         8  DCM       H1              4.4655473715        2.5476930445        3.4899200782  CLST      8               1.0000000000
        38         8  DCM       H2              3.8353628957        2.2684280122        5.1844176076  CLST      8               1.0000000000
        39         8  DCM       CL1             6.0540232636        3.1351487675        5.1765381761  CLST      8               1.0000000000
        40         8  DCM       CL2             3.5991840128        4.5486652696        4.4838201255  CLST      8               1.0000000000
        41         9  DCM       C              10.0002935139       -2.7844184718       -0.8068894802  CLST      9               1.0000000000
        42         9  DCM       H1             10.8847307044       -3.4555505056       -0.7825645011  CLST      9               1.0000000000
        43         9  DCM       H2              9.7079137436       -2.5492704129       -1.8523158673  CLST      9               1.0000000000
        44         9  DCM       CL1            10.4004906134       -1.2648006468        0.0469598472  CLST      9               1.0000000000
        45         9  DCM       CL2             8.6324070338       -3.5946097500        0.0099141364  CLST      9               1.0000000000
        46        10  DCM       C               7.6504074356       -6.3561501878        2.8359750446  CLST      10              1.0000000000
        47        10  DCM       H1              8.4289342439       -5.7717521435        2.3028698022  CLST      10              1.0000000000
        48        10  DCM       H2              7.5882643904       -7.3955192045        2.4476686569  CLST      10              1.0000000000
        49        10  DCM       CL1             8.0367221355       -6.3967521117        4.5811816483  CLST      10              1.0000000000
        50        10  DCM       CL2             6.0743609473       -5.5577727142        2.5897993357  CLST      10              1.0000000000
        51        11  DCM       C              18.6799394459       -0.1974272257        6.1957845824  CLST      11              1.0000000000
        52        11  DCM       H1             17.9652740763       -0.1465339520        7.0443458007  CLST      11              1.0000000000
        53        11  DCM       H2             19.6039445468       -0.7429391593        6.4821302029  CLST      11              1.0000000000
        54        11  DCM       CL1            17.9007530577       -1.0503135219        4.8310478541  CLST      11              1.0000000000
        55        11  DCM       CL2            19.1167750204        1.4648411740        5.7027923903  CLST      11              1.0000000000
        56        12  DCM       C             -11.4475951073        5.0820735746        2.6732162418  CLST      12              1.0000000000
        57        12  DCM       H1            -10.7251749797        4.5929478805        3.3603669845  CLST      12              1.0000000000
        58        12  DCM       H2            -11.7947139283        4.3764559356        1.8890732680  CLST      12              1.0000000000
        59        12  DCM       CL1           -12.8579368197        5.6473826117        3.6152204382  CLST      12              1.0000000000
        60        12  DCM       CL2           -10.6489977514        6.4744733085        1.8873655589  CLST      12              1.0000000000
        61        13  DCM       C               2.4677754571      -10.6122181430        5.2035098186  CLST      13              1.0000000000
        62        13  DCM       H1              1.9784401255       -9.6286072894        5.3596347412  CLST      13              1.0000000000
        63        13  DCM       H2              3.5681287778      -10.5343774704        5.3291272223  CLST      13              1.0000000000
        64        13  DCM       CL1             2.1070724860      -11.1742738301        3.5486727301  CLST      13              1.0000000000
        65        13  DCM       CL2             1.8220768282      -11.7778624756        6.3934539601  CLST      13              1.0000000000
        66        14  DCM       C               4.6815142605       -7.2198435819        6.0592194554  CLST      14              1.0000000000
        67        14  DCM       H1              4.8801616263       -6.1732489574        6.3736993277  CLST      14              1.0000000000
        68        14  DCM       H2              5.6177114562       -7.7305405840        5.7495392360  CLST      14              1.0000000000
        69        14  DCM       CL1             3.9507994369       -8.1159987380        7.4221651290  CLST      14              1.0000000000
        70        14  DCM       CL2             3.5502752127       -7.1997668247        4.6794162295  CLST      14              1.0000000000
        71        15  DCM       C               5.2397476792        9.1723855972       -2.6899107832  CLST      15              1.0000000000
        72        15  DCM       H1              5.8590222385        8.5199023520       -2.0412589591  CLST      15              1.0000000000
        73        15  DCM       H2              4.1593636299        9.0056757869       -2.4985973057  CLST      15              1.0000000000
        74        15  DCM       CL1             5.6443832967       10.8772844145       -2.3398365728  CLST      15              1.0000000000
        75        15  DCM       CL2             5.5948677557        8.8020721705       -4.4018184639  CLST      15              1.0000000000
        76        16  DCM       C               3.5535615652        7.5314617893        0.6897704445  CLST      16              1.0000000000
        77        16  DCM       H1              2.5794379948        7.5195411175        0.1564212309  CLST      16              1.0000000000
        78        16  DCM       H2              3.4516357707        7.1259466777        1.7180805833  CLST      16              1.0000000000
        79        16  DCM       CL1             4.7191321801        6.5268216288       -0.2095643509  CLST      16              1.0000000000
        80        16  DCM       CL2             4.1566343491        9.2102934572        0.7754592279  CLST      16              1.0000000000
        81        17  DCM       C              -2.2577584852       -1.2711065502        6.1332692481  CLST      17              1.0000000000
        82        17  DCM       H1             -2.7736094860       -1.6147239192        5.2132964023  CLST      17              1.0000000000
        83        17  DCM       H2             -2.7260824994       -0.3458883092        6.5291983440  CLST      17              1.0000000000
        84        17  DCM       CL1            -2.3558443757       -2.5600132856        7.3666343690  CLST      17              1.0000000000
        85        17  DCM       CL2            -0.5492309368       -0.9321882947        5.7489623063  CLST      17              1.0000000000
        86        18  DCM       C             -11.7159411853       -0.3458877993       11.3145855827  CLST      18              1.0000000000
        87        18  DCM       H1            -12.4983834722       -0.9747020473       11.7893565616  CLST      18              1.0000000000
        88        18  DCM       H2            -10.8752065848       -0.9680187113       10.9404288904  CLST      18              1.0000000000
        89        18  DCM       CL1           -12.4383144454        0.5425164531        9.9422042838  CLST      18              1.0000000000
        90        18  DCM       CL2           -11.0902899021        0.8137602973       12.5225346071  CLST      18              1.0000000000
        91        19  DCM       C               0.4600254652        3.3230961054       -3.9320095649  CLST      19              1.0000000000
        92        19  DCM       H1             -0.2310611612        4.0223838814       -3.4156419211  CLST      19              1.0000000000
        93        19  DCM       H2              1.4130718011        3.2162388850       -3.3732656952  CLST      19              1.0000000000
        94        19  DCM       CL1             0.8126553939        3.9534815364       -5.5643885094  CLST      19              1.0000000000
        95        19  DCM       CL2            -0.3195165838        1.7220472891       -4.0631316942  CLST      19              1.0000000000
        96        20  DCM       C               1.3086283705       -1.7412681258       -5.6756512301  CLST      20              1.0000000000
        97        20  DCM       H1              1.7366451616       -2.7652644844       -5.6720167010  CLST      20              1.0000000000
        98        20  DCM       H2              1.9993413773       -1.0183763016       -5.1959885593  CLST      20              1.0000000000
        99        20  DCM       CL1             1.0278949611       -1.2397313073       -7.3646300083  CLST      20              1.0000000000
       100        20  DCM       CL2            -0.2361520914       -1.7453806769       -4.7799659962  CLST      20              1.0000000000
       101        21  DCM       C               0.8851504576       -0.0596420059      -10.9768770991  CLST      21              1.0000000000
       102        21  DCM       H1              0.4232600500       -0.6957131106      -10.1930500507  CLST      21              1.0000000000
       103        21  DCM       H2              0.1998674111        0.7622839110      -11.2738712288  CLST      21              1.0000000000
       104        21  DCM       CL1             2.3991720741        0.6437660744      -10.3385142272  CLST      21              1.0000000000
       105        21  DCM       CL2             1.2422534476       -1.0684783695      -12.4084419857  CLST      21              1.0000000000
       106        22  DCM       C               2.7913480648        8.9003363294        4.3941659800  CLST      22              1.0000000000
       107        22  DCM       H1              3.5457100828        8.0993161540        4.2466187861  CLST      22              1.0000000000
       108        22  DCM       H2              2.4258392912        8.9135102752        5.4427443074  CLST      22              1.0000000000
       109        22  DCM       CL1             3.5368184789       10.4807867227        4.0138314106  CLST      22              1.0000000000
       110        22  DCM       CL2             1.4056945670        8.6019665965        3.3060485074  CLST      22              1.0000000000
       111        23  DCM       C               9.9691871196        4.0627325986       -5.1512524138  CLST      23              1.0000000000
       112        23  DCM       H1             10.5372502980        3.2361222014       -5.6249964934  CLST      23              1.0000000000
       113        23  DCM       H2              9.2133644403        4.4743506848       -5.8505912070  CLST      23              1.0000000000
       114        23  DCM       CL1             9.1421895723        3.4360937331       -3.6981892890  CLST      23              1.0000000000
       115        23  DCM       CL2            11.1046684892        5.3638999557       -4.6960513206  CLST      23              1.0000000000
       116        24  DCM       C             -14.9481254012        1.2038811854      -10.1628642316  CLST      24              1.0000000000
       117        24  DCM       H1            -14.9619619234        1.1781260053      -11.2731146861  CLST      24              1.0000000000
       118        24  DCM       H2            -15.6619270308        1.9597169632       -9.7735144949  CLST      24              1.0000000000
       119        24  DCM       CL1           -15.4047302825       -0.4067917797       -9.5352792628  CLST      24              1.0000000000
       120        24  DCM       CL2           -13.3008743466        1.6262626605       -9.6116867711  CLST      24              1.0000000000
       121        25  DCM       C              12.1138034628        5.5785096473      -11.4883654477  CLST      25              1.0000000000
       122        25  DCM       H1             12.2921488645        6.3688275731      -12.2477719444  CLST      25              1.0000000000
       123        25  DCM       H2             12.0741884964        6.0079595274      -10.4648994779  CLST      25              1.0000000000
       124        25  DCM       CL1            10.5580947582        4.7723661414      -11.8426994669  CLST      25              1.0000000000
       125        25  DCM       CL2            13.4437715737        4.3865963125      -11.5654418383  CLST      25              1.0000000000
       126        26  DCM       C               3.5045732476        0.4591732820       -0.6643748668  CLST      26              1.0000000000
       127        26  DCM       H1              3.9590654734        1.3965534935       -1.0460404815  CLST      26              1.0000000000
       128        26  DCM       H2              4.1675534302       -0.4095144946       -0.8561267743  CLST      26              1.0000000000
       129        26  DCM       CL1             3.2520364279        0.6099927080        1.0982460814  CLST      26              1.0000000000
       130        26  DCM       CL2             1.9396768906        0.1903595923       -1.4865335263  CLST      26              1.0000000000
       131        27  DCM       C              -4.1388575010       -0.3498336003        2.8401026310  CLST      27              1.0000000000
       132        27  DCM       H1             -4.7498284663       -0.2199809630        1.9220469755  CLST      27              1.0000000000
       133        27  DCM       H2             -3.8583647232       -1.4139611182        2.9833745484  CLST      27              1.0000000000
       134        27  DCM       CL1            -2.6504091986        0.6252413456        2.6947101752  CLST      27              1.0000000000
       135        27  DCM       CL2            -5.0819341102        0.1996310082        4.2548061612  CLST      27              1.0000000000
       136        28  DCM       C               7.9108866097        0.1902104695       -2.3156707327  CLST      28              1.0000000000
       137        28  DCM       H1              8.2840306171       -0.8092074496       -2.6206383316  CLST      28              1.0000000000
       138        28  DCM       H2              8.7392446852        0.9244659422       -2.2528566680  CLST      28              1.0000000000
       139        28  DCM       CL1             6.7259280271        0.7538847791       -3.5249782943  CLST      28              1.0000000000
       140        28  DCM       CL2             7.1310640782        0.0606547434       -0.7145895437  CLST      28              1.0000000000
       141        29  DCM       C               2.0130186214        2.6848927458        9.2945751799  CLST      29              1.0000000000
       142        29  DCM       H1              2.3478066089        2.5344896488       10.3426889231  CLST      29              1.0000000000
       143        29  DCM       H2              1.2988892953        1.8939340310        8.9859863770  CLST      29              1.0000000000
       144        29  DCM       CL1             3.4326440352        2.6259357610        8.2121673286  CLST      29              1.0000000000
       145        29  DCM       CL2             1.2048869154        4.2724472587        9.1529637790  CLST      29              1.0000000000
       146        30  DCM       C               2.3247946820        7.0146919506       -4.5371584187  CLST      30              1.0000000000
       147        30  DCM       H1              2.7986234838        8.0174458550       -4.5362257781  CLST      30              1.0000000000
       148        30  DCM       H2              2.3825486615        6.5504734707       -5.5435021522  CLST      30              1.0000000000
       149        30  DCM       CL1             3.1754200508        5.9644307735       -3.3692609786  CLST      30              1.0000000000
       150        30  DCM       CL2             0.6081836577        7.1809000431       -4.0682255236  CLST      30              1.0000000000
       151        31  DCM       C               5.8483512996        4.4144358188       -5.4490975458  CLST      31              1.0000000000
       152        31  DCM       H1              6.6019113187        4.9286387382       -4.8162505627  CLST      31              1.0000000000
       153        31  DCM       H2              5.0696266319        3.9284746798       -4.8258646549  CLST      31              1.0000000000
       154        31  DCM       CL1             5.0647157565        5.6121418581       -6.5174760769  CLST      31              1.0000000000
       155        31  DCM       CL2             6.6644746823        3.1689929871       -6.4359292759  CLST      31              1.0000000000
       156        32  DCM       C               6.7271974516        3.6368987832       -0.5976638471  CLST      32              1.0000000000
       157        32  DCM       H1              7.0859106330        4.6779006350       -0.4595513557  CLST      32              1.0000000000
       158        32  DCM       H2              7.5704813875        2.9568768653       -0.8351057805  CLST      32              1.0000000000
       159        32  DCM       CL1             5.9361763264        3.0933366531        0.9082224192  CLST      32              1.0000000000
       160        32  DCM       CL2             5.5507933295        3.5997414113       -1.9411178419  CLST      32              1.0000000000
       161        33  DCM       C               3.6274518908       -3.0992128877        1.1748974197  CLST      33              1.0000000000
       162        33  DCM       H1              3.6827930644       -4.1138287661        1.6194095441  CLST      33              1.0000000000
       163        33  DCM       H2              3.1084639250       -2.3901489451        1.8529587074  CLST      33              1.0000000000
       164        33  DCM       CL1             5.2845132305       -2.5079932846        0.8911392636  CLST      33              1.0000000000
       165        33  DCM       CL2             2.7392480213       -3.1905792056       -0.3691374030  CLST      33              1.0000000000
       166        34  DCM       C             -14.7187316729        1.7886368718       -6.3314836058  CLST      34              1.0000000000
       167        34  DCM       H1            -13.6285139326        1.6160399259       -6.4508472999  CLST      34              1.0000000000
       168        34  DCM       H2            -15.3038109498        1.1140723353       -6.9908912548  CLST      34              1.0000000000
       169        34  DCM       CL1           -15.1731178555        1.4740122239       -4.6339979963  CLST      34              1.0000000000
       170        34  DCM       CL2           -15.0922329118        3.4840493718       -6.7543649687  CLST      34              1.0000000000
       171        35  DCM       C              -4.3332112315      -10.7426628172       -5.3069222912  CLST      35              1.0000000000
       172        35  DCM       H1             -3.6099152320      -11.4670164686       -5.7379297051  CLST      35              1.0000000000
       173        35  DCM       H2             -5.3541446295      -11.1766395186       -5.2559329214  CLST      35              1.0000000000
       174        35  DCM       CL1            -4.3756194943       -9.2782215524       -6.3310252490  CLST      35              1.0000000000
       175        35  DCM       CL2            -3.8076326356      -10.3096451941       -3.6557167552  CLST      35              1.0000000000
       176        36  DCM       C             -13.3329410243        6.4752227873       -0.7885522963  CLST      36              1.0000000000
       177        36  DCM       H1            -13.7743396100        6.8151812593       -1.7492963431  CLST      36              1.0000000000
       178        36  DCM       H2            -12.5377383541        7.1707570348       -0.4462123287  CLST      36              1.0000000000
       179        36  DCM       CL1           -14.6176727813        6.4066212054        0.4524480208  CLST      36              1.0000000000
       180        36  DCM       CL2           -12.6262688074        4.8495650633       -1.0190059463  CLST      36              1.0000000000
       181        37  DCM       C               0.9999632049       -4.1095411349        6.9078499026  CLST      37              1.0000000000
       182        37  DCM       H1              1.1918265028       -3.0603302096        6.6028583957  CLST      37              1.0000000000
       183        37  DCM       H2              0.1037112193       -4.1844541360        7.5587704691  CLST      37              1.0000000000
       184        37  DCM       CL1             0.7348057741       -5.0924876269        5.4427389045  CLST      37              1.0000000000
       185        37  DCM       CL2             2.4215569804       -4.7196609571        7.8007795931  CLST      37              1.0000000000
       186        38  DCM       C               4.0754106658       -2.0162443095        5.2989885949  CLST      38              1.0000000000
       187        38  DCM       H1              3.8720618225       -2.0935344074        6.3876249351  CLST      38              1.0000000000
       188        38  DCM       H2              5.1223725251       -1.7031979247        5.1123044619  CLST      38              1.0000000000
       189        38  DCM       CL1             3.8089889512       -3.6112282155        4.5462267848  CLST      38              1.0000000000
       190        38  DCM       CL2             2.9719739914       -0.8069268193        4.5819811016  CLST      38              1.0000000000
       191        39  DCM       C               8.1045892703       -0.7911296604       -6.4525949095  CLST      39              1.0000000000
       192        39  DCM       H1              7.0787105681       -0.4187630950       -6.2471819952  CLST      39              1.0000000000
       193        39  DCM       H2              8.1926185986       -1.1549731636       -7.4978617435  CLST      39              1.0000000000
       194        39  DCM       CL1             9.2639591037        0.5453260619       -6.2037747058  CLST      39              1.0000000000
       195        39  DCM       CL2             8.4819622842       -2.1318179615       -5.3301333902  CLST      39              1.0000000000
       196        40  DCM       C             -17.0475856615        5.7902942405       -2.3533786115  CLST      40              1.0000000000
       197        40  DCM       H1            -18.0106357827        5.5648463826       -2.8586651821  CLST      40              1.0000000000
       198        40  DCM       H2            -17.1144343322        5.5957033377       -1.2622617676  CLST      40              1.0000000000
       199        40  DCM       CL1           -15.7673723772        4.7571282065       -3.0521791657  CLST      40              1.0000000000
       200        40  DCM       CL2           -16.6449239699        7.5117980006       -2.6138445116  CLST      40              1.0000000000
       201        41  DCM       C               0.6561844921        2.0883637968        3.9215677067  CLST      41              1.0000000000
       202        41  DCM       H1              1.6235449605        2.0349276531        3.3784451220  CLST      41              1.0000000000
       203        41  DCM       H2              0.0495562173        1.1779264562        3.7417179695  CLST      41              1.0000000000
       204        41  DCM       CL1             0.9770357361        2.2325749295        5.6732238208  CLST      41              1.0000000000
       205        41  DCM       CL2            -0.2576956413        3.5148933441        3.3527265046  CLST      41              1.0000000000
       206        42  DCM       C               1.4667180184       -6.3255244254       -3.1797199037  CLST      42              1.0000000000
       207        42  DCM       H1              0.9692658558       -6.7645087272       -4.0691570539  CLST      42              1.0000000000
       208        42  DCM       H2              2.5261540061       -6.6466941196       -3.1121792223  CLST      42              1.0000000000
       209        42  DCM       CL1             1.4085826570       -4.5477342054       -3.3020548226  CLST      42              1.0000000000
       210        42  DCM       CL2             0.6031283962       -6.8595463606       -1.7144241934  CLST      42              1.0000000000
       211        43  DCM       C              -0.9382518636       -2.7411362834       -1.2131094376  CLST      43              1.0000000000
       212        43  DCM       H1              0.0301013548       -2.2952055869       -0.9063334847  CLST      43              1.0000000000
       213        43  DCM       H2             -0.9325630735       -2.9941359701       -2.2925795062  CLST      43              1.0000000000
       214        43  DCM       CL1            -1.2396470089       -4.2300561175       -0.2667932397  CLST      43              1.0000000000
       215        43  DCM       CL2            -2.2341478414       -1.5487778687       -0.9153346260  CLST      43              1.0000000000
       216        44  DCM       C               1.0609964866      -14.6552117018        3.7682958278  CLST      44              1.0000000000
       217        44  DCM       H1              1.7900706309      -14.1337156603        4.4241190733  CLST      44              1.0000000000
       218        44  DCM       H2              0.9437851270      -15.7183212239        4.0664335796  CLST      44              1.0000000000
       219        44  DCM       CL1             1.6440613117      -14.5855290057        2.0796599872  CLST      44              1.0000000000
       220        44  DCM       CL2            -0.5237354543      -13.8382524620        3.8964298213  CLST      44              1.0000000000
       221        45  DCM       C             -15.4505694784        2.6408502500        0.2205058094  CLST      45              1.0000000000
       222        45  DCM       H1            -16.4094580283        2.1852367949        0.5451890094  CLST      45              1.0000000000
       223        45  DCM       H2            -15.6098999001        3.6590645391       -0.1915977326  CLST      45              1.0000000000
       224        45  DCM       CL1           -14.3494658847        2.7450094509        1.6248534972  CLST      45              1.0000000000
       225        45  DCM       CL2           -14.7214701322        1.6143519099       -1.0465111473  CLST      45              1.0000000000
       226        46  DCM       C              -2.1801729689       -4.0746178295       -7.0260798210  CLST      46              1.0000000000
       227        46  DCM       H1             -1.2761896398       -4.0745192577       -6.3810742528  CLST      46              1.0000000000
       228        46  DCM       H2             -3.0480361106       -4.5194308810       -6.4948908649  CLST      46              1.0000000000
       229        46  DCM       CL1            -2.5778729128       -2.3926201039       -7.4766418833  CLST      46              1.0000000000
       230        46  DCM       CL2            -1.8453574503       -5.0353974287       -8.4952616261  CLST      46              1.0000000000
       231        47  DCM       C              -0.6723976453       12.2147290982        6.6004645733  CLST      47              1.0000000000
       232        47  DCM       H1             -0.0472078959       12.9984082625        7.0779650455  CLST      47              1.0000000000
       233        47  DCM       H2             -1.6373720487       12.6342705792        6.2450196445  CLST      47              1.0000000000
       234        47  DCM       CL1             0.2133686077       11.5385219941        5.2044961173  CLST      47              1.0000000000
       235        47  DCM       CL2            -1.0013932275       10.9218476273        7.7906825367  CLST      47              1.0000000000
       236        48  DCM       C               6.2977050488       -5.6783836111       -5.6947839364  CLST      48              1.0000000000
       237        48  DCM       H1              6.4173054935       -4.8041829630       -6.3685895955  CLST      48              1.0000000000
       238        48  DCM       H2              6.3770391011       -6.6312714252       -6.2602778114  CLST      48              1.0000000000
       239        48  DCM       CL1             7.5812717994       -5.6343865044       -4.4498689340  CLST      48              1.0000000000
       240        48  DCM       CL2             4.6873715681       -5.6045713013       -4.9202713146  CLST      48              1.0000000000
       241        49  DCM       C              -0.0385541221        7.4540994933        6.7148158012  CLST      49              1.0000000000
       242        49  DCM       H1             -0.0928993439        8.3009733285        5.9960197258  CLST      49              1.0000000000
       243        49  DCM       H2             -1.0400559958        7.2198156711        7.1301063648  CLST      49              1.0000000000
       244        49  DCM       CL1             0.5994037881        6.0050617550        5.8859016081  CLST      49              1.0000000000
       245        49  DCM       CL2             1.0561188314        7.9029723259        8.0528764455  CLST      49              1.0000000000
       246        50  DCM       C             -10.9414006137        3.5105943977        8.4849550454  CLST      50              1.0000000000
       247        50  DCM       H1            -12.0508755179        3.5117529354        8.5301280724  CLST      50              1.0000000000
       248        50  DCM       H2            -10.5631173226        2.5536315892        8.0673207557  CLST      50              1.0000000000
       249        50  DCM       CL1           -10.3958908001        4.8560760101        7.4409623281  CLST      50              1.0000000000
       250        50  DCM       CL2           -10.2946361359        3.7210859801       10.1381745254  CLST      50              1.0000000000
       251        51  DCM       C               3.5158800290       -9.5218154199       -3.4835691217  CLST      51              1.0000000000
       252        51  DCM       H1              2.9022462573       -9.1162293130       -2.6510893328  CLST      51              1.0000000000
       253        51  DCM       H2              3.5756755774      -10.6291567786       -3.4290166897  CLST      51              1.0000000000
       254        51  DCM       CL1             2.7787006166       -9.0559725380       -5.0443562428  CLST      51              1.0000000000
       255        51  DCM       CL2             5.1675034619       -8.8485562431       -3.3758794336  CLST      51              1.0000000000
       256        52  DCM       C               4.5176878684       -2.1008589486       -3.4544596648  CLST      52              1.0000000000
       257        52  DCM       H1              4.3697545592       -1.0481230755       -3.1404117654  CLST      52              1.0000000000
       258        52  DCM       H2              3.6255233905       -2.7164577755       -3.2187229504  CLST      52              1.0000000000
       259        52  DCM       CL1             5.9319236378       -2.7712467696       -2.5977860653  CLST      52              1.0000000000
       260        52  DCM       CL2             4.8139108729       -2.1410038415       -5.2130107627  CLST      52              1.0000000000
       261        53  DCM       C               4.6007330581       -9.0296820396        1.7354060444  CLST      53              1.0000000000
       262        53  DCM       H1              4.8895579143       -7.9704270874        1.5812813825  CLST      53              1.0000000000
       263        53  DCM       H2              3.5173907764       -9.1091527150        1.9657928018  CLST      53              1.0000000000
       264        53  DCM       CL1             4.9573802436       -9.9526944681        0.2465079954  CLST      53              1.0000000000
       265        53  DCM       CL2             5.5499215869       -9.6920943718        3.0975877156  CLST      53              1.0000000000
       266        54  DCM       C              -0.1644050047      -11.2345300606       -4.4876331886  CLST      54              1.0000000000
       267        54  DCM       H1             -0.8656620936      -12.0494491425       -4.2117951547  CLST      54              1.0000000000
       268        54  DCM       H2              0.8850373868      -11.5976752701       -4.5091864981  CLST      54              1.0000000000
       269        54  DCM       CL1            -0.2973457876       -9.9225627671       -3.2826081947  CLST      54              1.0000000000
       270        54  DCM       CL2            -0.5977203485      -10.6161818664       -6.1074736895  CLST      54              1.0000000000
       271        55  DCM       C               6.5486132712        6.2645531477        3.0367848500  CLST      55              1.0000000000
       272        55  DCM       H1              5.7501793542        7.0234917424        2.8992484139  CLST      55              1.0000000000
       273        55  DCM       H2              6.1380911750        5.2352195872        2.9727607178  CLST      55              1.0000000000
       274        55  DCM       CL1             7.7793209344        6.4760990845        1.7593275855  CLST      55              1.0000000000
       275        55  DCM       CL2             7.2988478192        6.4934972792        4.6420508749  CLST      55              1.0000000000
       276        56  DCM       C              -8.6641819064       -2.3740723102        3.7886246659  CLST      56              1.0000000000
       277        56  DCM       H1             -9.7232633495       -2.2553865800        3.4771648801  CLST      56              1.0000000000
       278        56  DCM       H2             -8.4213648144       -3.4395583565        3.9876876099  CLST      56              1.0000000000
       279        56  DCM       CL1            -7.6058459548       -1.7816631472        2.4764473296  CLST      56              1.0000000000
       280        56  DCM       CL2            -8.3892985913       -1.4134420440        5.2722783237  CLST      56              1.0000000000
       281        57  DCM       C              -5.6913581822       -1.0262279241        7.7053965030  CLST      57              1.0000000000
       282        57  DCM       H1             -5.1266069864       -1.3457163249        6.8059771715  CLST      57              1.0000000000
       283        57  DCM       H2             -6.5932216197       -0.4475639453        7.4193311203  CLST      57              1.0000000000
       284        57  DCM       CL1            -6.1900218543       -2.4761190267        8.6215988670  CLST      57              1.0000000000
       285        57  DCM       CL2            -4.6410840768       -0.0014127664        8.7233154299  CLST      57              1.0000000000
       286        58  DCM       C               8.2114460012        6.6598687952       -7.8899429882  CLST      58              1.0000000000
       287        58  DCM       H1              7.4134316012        7.2233302819       -8.4182142245  CLST      58              1.0000000000
       288        58  DCM       H2              7.9766171559        5.5750741748       -7.8562106241  CLST      58              1.0000000000
       289        58  DCM       CL1             9.7594116681        6.8926945816       -8.7510118565  CLST      58              1.0000000000
       290        58  DCM       CL2             8.3527483531        7.2787393724       -6.2193639278  CLST      58              1.0000000000
       291        59  DCM       C               7.8307941551        4.6402144421        8.1288416584  CLST      59              1.0000000000
       292        59  DCM       H1              7.8253073616        5.4977184863        8.8346885352  CLST      59              1.0000000000
       293        59  DCM       H2              7.3251032142        4.9057479200        7.1775207071  CLST      59              1.0000000000
       294        59  DCM       CL1             9.5200330780        4.1722702917        7.7780977385  CLST      59              1.0000000000
       295        59  DCM       CL2             6.9695932266        3.2669715385        8.8799757022  CLST      59              1.0000000000
       296        60  DCM       C               1.5047415118       -6.8476640800       -7.8569423564  CLST      60              1.0000000000
       297        60  DCM       H1              0.9868848199       -6.5771585965       -8.8013889394  CLST      60              1.0000000000
       298        60  DCM       H2              1.0465589230       -7.7461452875       -7.3918281860  CLST      60              1.0000000000
       299        60  DCM       CL1             3.2235214161       -7.1858688991       -8.2125167565  CLST      60              1.0000000000
       300        60  DCM       CL2             1.3856228259       -5.4772479874       -6.7175115616  CLST      60              1.0000000000
       301        61  DCM       C              -7.9303961983        0.6720239319       10.5285672578  CLST      61              1.0000000000
       302        61  DCM       H1             -8.4600145674        1.4407404204       11.1298489456  CLST      61              1.0000000000
       303        61  DCM       H2             -6.9068147076        1.0099516706       10.2637864294  CLST      61              1.0000000000
       304        61  DCM       CL1            -8.8525878668        0.3660686946        9.0278968503  CLST      61              1.0000000000
       305        61  DCM       CL2            -7.8150436639       -0.8334513671       11.4845997685  CLST      61              1.0000000000
       306        62  DCM       C               2.4914690985       11.2689704611        9.2871893728  CLST      62              1.0000000000
       307        62  DCM       H1              3.3286020307       11.1357563510       10.0048213329  CLST      62              1.0000000000
       308        62  DCM       H2              1.6547114065       10.5760133713        9.5165397462  CLST      62              1.0000000000
       309        62  DCM       CL1             1.8974081993       12.9524278742        9.3876941284  CLST      62              1.0000000000
       310        62  DCM       CL2             3.0850111812       10.9353532907        7.6348816901  CLST      62              1.0000000000
       311        63  DCM       C              12.4914629876        1.6025856887       -3.4343286039  CLST      63              1.0000000000
       312        63  DCM       H1             11.9408248847        2.5197895115       -3.1353283091  CLST      63              1.0000000000
       313        63  DCM       H2             13.3866284490        1.4504278228       -2.7952634556  CLST      63              1.0000000000
       314        63  DCM       CL1            11.4107613480        0.1878224542       -3.2667941941  CLST      63              1.0000000000
       315        63  DCM       CL2            13.0117763154        1.7672588168       -5.1363917537  CLST      63              1.0000000000
       316        64  DCM       C              -2.4669732531       -6.9095384175       -4.0044713980  CLST      64              1.0000000000
       317        64  DCM       H1             -3.5169949520       -7.2115076245       -4.2016116184  CLST      64              1.0000000000
       318        64  DCM       H2             -2.0335897281       -7.5005744485       -3.1713368541  CLST      64              1.0000000000
       319        64  DCM       CL1            -1.4973854737       -7.1851011659       -5.4780218994  CLST      64              1.0000000000
       320        64  DCM       CL2            -2.4313130908       -5.1783281642       -3.5676965286  CLST      64              1.0000000000
       321        65  DCM       C               1.3369016367       11.8727268362        1.4252539862  CLST      65              1.0000000000
       322        65  DCM       H1              1.5431150925       10.7952352904        1.2625392339  CLST      65              1.0000000000
       323        65  DCM       H2              1.2374226524       12.1032644942        2.5065111344  CLST      65              1.0000000000
       324        65  DCM       CL1             2.6951365962       12.8219671089        0.7580020275  CLST      65              1.0000000000
       325        65  DCM       CL2            -0.1803832418       12.3126806117        0.5866283619  CLST      65              1.0000000000
       326        66  DCM       C              11.4543138241        2.8248043187       -8.5799763395  CLST      66              1.0000000000
       327        66  DCM       H1             11.6241001329        1.9697762167       -7.8913975571  CLST      66              1.0000000000
       328        66  DCM       H2             11.8214901074        2.5931443733       -9.6019352766  CLST      66              1.0000000000
       329        66  DCM       CL1             9.7024934667        3.1724404448       -8.6576373807  CLST      66              1.0000000000
       330        66  DCM       CL2            12.3294612927        4.2545233044       -7.9596108641  CLST      66              1.0000000000
       331        67  DCM       C             -15.0902720651        5.1084139970      -10.1843738336  CLST      67              1.0000000000
       332        67  DCM       H1            -14.9501931859        6.2099737977      -10.1958075773  CLST      67              1.0000000000
       333        67  DCM       H2            -14.4459257220        4.6324793581       -9.4154486541  CLST      67              1.0000000000
       334        67  DCM       CL1           -16.8020019926        4.7446320568       -9.8179707468  CLST      67              1.0000000000
       335        67  DCM       CL2           -14.6605988418        4.4487802385      -11.7895455287  CLST      67              1.0000000000
       336        68  DCM       C               8.8849726110        7.9247487483       -2.5813747510  CLST      68              1.0000000000
       337        68  DCM       H1              9.9421335404        7.6108966414       -2.7128015189  CLST      68              1.0000000000
       338        68  DCM       H2              8.5671717931        8.6091922070       -3.3963442844  CLST      68              1.0000000000
       339        68  DCM       CL1             7.8424958501        6.4745957893       -2.5987639215  CLST      68              1.0000000000
       340        68  DCM       CL2             8.7144226619        8.7676259383       -1.0149878883  CLST      68              1.0000000000
       341        69  DCM       C               3.2812950791        1.6744582920       -6.4373063303  CLST      69              1.0000000000
       342        69  DCM       H1              2.2320933661        1.4538034018       -6.7251475357  CLST      69              1.0000000000
       343        69  DCM       H2              3.5476011524        2.7239458807       -6.6822209487  CLST      69              1.0000000000
       344        69  DCM       CL1             3.4673904853        1.4243922163       -4.6770162420  CLST      69              1.0000000000
       345        69  DCM       CL2             4.3710906183        0.5756180545       -7.3299693205  CLST      69              1.0000000000
       346        70  DCM       C              -2.4656950346        5.6325176230       -6.1152358337  CLST      70              1.0000000000
       347        70  DCM       H1             -1.4273000015        5.9723178313       -5.9184932967  CLST      70              1.0000000000
       348        70  DCM       H2             -3.1841749368        6.4745953463       -6.0256262798  CLST      70              1.0000000000
       349        70  DCM       CL1            -2.5535579952        4.9658631732       -7.7712049468  CLST      70              1.0000000000
       350        70  DCM       CL2            -2.9007642663        4.3676836918       -4.9292579847  CLST      70              1.0000000000
       351        71  DCM       C               0.1372200139       -6.8524566614        2.1289663616  CLST      71              1.0000000000
       352        71  DCM       H1             -0.2787872194       -7.3862656879        1.2505231261  CLST      71              1.0000000000
       353        71  DCM       H2             -0.5077746167       -5.9995173470        2.4281124299  CLST      71              1.0000000000
       354        71  DCM       CL1             0.2654563942       -7.9918361315        3.4963357786  CLST      71              1.0000000000
       355        71  DCM       CL2             1.7565481794       -6.2304315903        1.7154223093  CLST      71              1.0000000000
       356        72  DCM       C             -12.4547237992        2.4475348611        5.2607105664  CLST      72              1.0000000000
       357        72  DCM       H1            -12.9719315688        2.3558140620        4.2828318278  CLST      72              1.0000000000
       358        72  DCM       H2            -12.4869206486        3.4942570630        5.6309878168  CLST      72              1.0000000000
       359        72  DCM       CL1           -13.2606452300        1.3886563095        6.4537877762  CLST      72              1.0000000000
       360        72  DCM       CL2           -10.7474661379        1.9527797179        5.0659242494  CLST      72              1.0000000000
       361        73  DCM       C              -1.7677878529        1.3234902495       -7.5199062613  CLST      73              1.0000000000
       362        73  DCM       H1             -1.5263907338        0.3639741579       -7.0161145245  CLST      73              1.0000000000
       363        73  DCM       H2             -2.1618720963        2.0642665304       -6.7929563402  CLST      73              1.0000000000
       364        73  DCM       CL1            -0.2890772807        1.9792124895       -8.2770377512  CLST      73              1.0000000000
       365        73  DCM       CL2            -3.0016869514        1.0301270482       -8.7780602236  CLST      73              1.0000000000
       366        74  DCM       C               7.6308426045       -0.1911317753        7.4171378604  CLST      74              1.0000000000
       367        74  DCM       H1              7.7992354478       -1.2797242017        7.2720040007  CLST      74              1.0000000000
       368        74  DCM       H2              7.9506869667        0.1339864150        8.4293091302  CLST      74              1.0000000000
       369        74  DCM       CL1             8.5717579323        0.7100608595        6.1937472092  CLST      74              1.0000000000
       370        74  DCM       CL2             5.8895694103        0.1587036125        7.2230295444  CLST      74              1.0000000000
       371        75  DCM       C               9.6666172699        3.5109827292        4.2209075665  CLST      75              1.0000000000
       372        75  DCM       H1              8.8711957726        3.8244582996        4.9278164455  CLST      75              1.0000000000
       373        75  DCM       H2             10.3632829314        2.7902762358        4.6986726170  CLST      75              1.0000000000
       374        75  DCM       CL1             8.9034805532        2.7351501672        2.8048212989  CLST      75              1.0000000000
       375        75  DCM       CL2            10.5829470945        4.9561108439        3.7075474065  CLST      75              1.0000000000
       376        76  DCM       C              -2.1505864329       -2.5273364277      -11.0170024453  CLST      76              1.0000000000
       377        76  DCM       H1             -1.3730998579       -2.3516418975      -10.2438468408  CLST      76              1.0000000000
       378        76  DCM       H2             -3.0928636383       -2.8963068785      -10.5594249930  CLST      76              1.0000000000
       379        76  DCM       CL1            -2.4824062379       -0.9922062023      -11.8688788218  CLST      76              1.0000000000
       380        76  DCM       CL2            -1.5508006356       -3.7488059514      -12.1757194363  CLST      76              1.0000000000
       381        77  DCM       C             -19.2691277729        1.1142338214       -1.7323312874  CLST      77              1.0000000000
       382        77  DCM       H1            -20.2046895794        1.1564951370       -2.3294286356  CLST      77              1.0000000000
       383        77  DCM       H2            -19.4182848177        0.5374369475       -0.7949894764  CLST      77              1.0000000000
       384        77  DCM       CL1           -17.9974801189        0.3213050501       -2.7055751997  CLST      77              1.0000000000
       385        77  DCM       CL2           -18.7665291005        2.7798319711       -1.3204568294  CLST      77              1.0000000000
       386        78  DCM       C              -6.1063968265       -4.5690037504        5.7640891899  CLST      78              1.0000000000
       387        78  DCM       H1             -6.9628106281       -4.0009336508        6.1835125155  CLST      78              1.0000000000
       388        78  DCM       H2             -5.4536906282       -4.9615098980        6.5725126230  CLST      78              1.0000000000
       389        78  DCM       CL1            -6.7367422675       -5.9370609019        4.8029154787  CLST      78              1.0000000000
       390        78  DCM       CL2            -5.1468847720       -3.4828796997        4.7193340936  CLST      78              1.0000000000
       391        79  DCM       C              -5.8999025303       -4.1535018886        0.1738881969  CLST      79              1.0000000000
       392        79  DCM       H1             -6.5985369504       -3.3172973116       -0.0392219153  CLST      79              1.0000000000
       393        79  DCM       H2             -5.5432030330       -4.6265821610       -0.7652009589  CLST      79              1.0000000000
       394        79  DCM       CL1            -4.4948689672       -3.5173257129        1.0716978983  CLST      79              1.0000000000
       395        79  DCM       CL2            -6.7416214257       -5.3783003561        1.1666457106  CLST      79              1.0000000000
       396        80  DCM       C               4.2452120765        5.9678155032        7.7238761378  CLST      80              1.0000000000
       397        80  DCM       H1              3.1647721757        5.8161157414        7.5187381562  CLST      80              1.0000000000
       398        80  DCM       H2              4.8457388720        5.1313056087        7.3102079711  CLST      80              1.0000000000
       399        80  DCM       CL1             4.5029340195        6.0557161144        9.4909872436  CLST      80              1.0000000000
       400        80  DCM       CL2             4.7695055910        7.4935795433        6.9599268555  CLST      80              1.0000000000
       401        81  DCM       C              -7.0131956092        3.5512257389        7.9313747893  CLST      81              1.0000000000
       402        81  DCM       H1             -7.8883288087        3.2633306624        8.5488468318  CLST      81              1.0000000000
       403        81  DCM       H2             -7.1301545837        4.5786236773        7.5259504149  CLST      81              1.0000000000
       404        81  DCM       CL1            -5.5444229575        3.4867865771        8.9469497451  CLST      81              1.0000000000
       405        81  DCM       CL2            -6.8663160124        2.4015597018        6.5717352820  CLST      81              1.0000000000
       406        82  DCM       C               7.8261714003       -0.9311364628        2.9031282256  CLST      82              1.0000000000
       407        82  DCM       H1              8.7265600422       -0.3477959261        3.1889108203  CLST      82              1.0000000000
       408        82  DCM       H2              7.8739037039       -1.2386124188        1.8377528527  CLST      82              1.0000000000
       409        82  DCM       CL1             7.7284898798       -2.3963095672        3.9230625205  CLST      82              1.0000000000
       410        82  DCM       CL2             6.3726360318        0.0800610933        3.1501040458  CLST      82              1.0000000000
       411        83  DCM       C               1.6760753462      -11.5571948152        0.1063097644  CLST      83              1.0000000000
       412        83  DCM       H1              0.8519466819      -12.0577268925        0.6560436083  CLST      83              1.0000000000
       413        83  DCM       H2              2.6429580325      -11.6976689848        0.6331627774  CLST      83              1.0000000000
       414        83  DCM       CL1             1.3177211663       -9.8110118947       -0.0028385685  CLST      83              1.0000000000
       415        83  DCM       CL2             1.8022049006      -12.2566005199       -1.5327248902  CLST      83              1.0000000000
       416        84  DCM       C               0.5779607816       -1.1938691229        9.2849254347  CLST      84              1.0000000000
       417        84  DCM       H1             -0.2830476378       -0.8035439741        8.7033363762  CLST      84              1.0000000000
       418        84  DCM       H2              0.4810611478       -2.2865871823        9.4562642690  CLST      84              1.0000000000
       419        84  DCM       CL1             2.0846587436       -0.8757153960        8.3764489156  CLST      84              1.0000000000
       420        84  DCM       CL2             0.6333025217       -0.3604843923       10.8649981990  CLST      84              1.0000000000
       421        85  DCM       C             -18.9341602955        0.0978164444       -7.8746872584  CLST      85              1.0000000000
       422        85  DCM       H1            -19.9653902947        0.2379222953       -7.4865571721  CLST      85              1.0000000000
       423        85  DCM       H2            -18.9042594853       -0.6845291005       -8.6624466552  CLST      85              1.0000000000
       424        85  DCM       CL1           -18.3622271372        1.6422181148       -8.5692517433  CLST      85              1.0000000000
       425        85  DCM       CL2           -17.8687283152       -0.3943862421       -6.5261534274  CLST      85              1.0000000000
       426        86  DCM       C               0.3009339261       -8.3404140108        7.4044584114  CLST      86              1.0000000000
       427        86  DCM       H1              0.9971125514       -8.9937500804        7.9717155554  CLST      86              1.0000000000
       428        86  DCM       H2              0.8363588853       -7.7882292423        6.6035825740  CLST      86              1.0000000000
       429        86  DCM       CL1            -0.4342889772       -7.1622118764        8.5291811603  CLST      86              1.0000000000
       430        86  DCM       CL2            -0.9727836219       -9.3539147918        6.6641179521  CLST      86              1.0000000000
       431        87  DCM       C               1.7616566891        3.8697546188       -0.4337614559  CLST      87              1.0000000000
       432        87  DCM       H1              2.5600186015        3.7985504708       -1.2023708597  CLST      87              1.0000000000
       433        87  DCM       H2              1.1412298510        2.9485888907       -0.4115306994  CLST      87              1.0000000000
       434        87  DCM       CL1             2.5198291449        4.0945806898        1.1658580130  CLST      87              1.0000000000
       435        87  DCM       CL2             0.7143091809        5.2700049866       -0.8021311908  CLST      87              1.0000000000
       436        88  DCM       C               0.2517344361       -2.8048527296        2.7135299281  CLST      88              1.0000000000
       437        88  DCM       H1              0.6385263548       -3.5651571164        2.0042735466  CLST      88              1.0000000000
       438        88  DCM       H2              0.8674913764       -2.7670932329        3.6359004817  CLST      88              1.0000000000
       439        88  DCM       CL1             0.2929350561       -1.2044657522        1.9229382831  CLST      88              1.0000000000
       440        88  DCM       CL2            -1.4288745240       -3.2235879058        3.1515784857  CLST      88              1.0000000000
       441        89  DCM       C              -2.0498162565        3.2161150011        7.3786091153  CLST      89              1.0000000000
       442        89  DCM       H1             -1.1381044287        3.7702128893        7.0706148680  CLST      89              1.0000000000
       443        89  DCM       H2             -2.7476105061        3.8753565304        7.9355219367  CLST      89              1.0000000000
       444        89  DCM       CL1            -2.8747966107        2.5977870363        5.9197743295  CLST      89              1.0000000000
       445        89  DCM       CL2            -1.5767265151        1.8486186556        8.4272781276  CLST      89              1.0000000000
       446        90  DCM       C               1.0021518860        5.4647099038       -9.1885360011  CLST      90              1.0000000000
       447        90  DCM       H1              0.1072444836        4.8085210729       -9.1594323767  CLST      90              1.0000000000
       448        90  DCM       H2              1.1288571117        5.9227174726      -10.1921050355  CLST      90              1.0000000000
       449        90  DCM       CL1             0.8081852638        6.7655467635       -7.9776053528  CLST      90              1.0000000000
       450        90  DCM       CL2             2.4517779094        4.4893656776       -8.8093756009  CLST      90              1.0000000000
       451        91  DCM       C               1.8429006214       11.1361278140       -2.4001938354  CLST      91              1.0000000000
       452        91  DCM       H1              2.7670553047       11.5296224282       -1.9279124770  CLST      91              1.0000000000
       453        91  DCM       H2              1.0078503093       11.8634588768       -2.3087823234  CLST      91              1.0000000000
       454        91  DCM       CL1             2.1611974859       10.8290329029       -4.1317516017  CLST      91              1.0000000000
       455        91  DCM       CL2             1.3803929783        9.6128933497       -1.5876457519  CLST      91              1.0000000000
       456        92  DCM       C              -2.1203530263      -12.2242722059       -0.9218490416  CLST      92              1.0000000000
       457        92  DCM       H1             -1.4835501632      -11.3444790435       -0.6887039951  CLST      92              1.0000000000
       458        92  DCM       H2             -2.1473860108      -12.4164026124       -2.0144868374  CLST      92              1.0000000000
       459        92  DCM       CL1            -1.4591242226      -13.6634388577       -0.0926363079  CLST      92              1.0000000000
       460        92  DCM       CL2            -3.7834293036      -11.9085367992       -0.3476775663  CLST      92              1.0000000000
