* INITIAL
*  DATE:     6/28/26      2: 1:27      CREATED BY USER: boittier
*
       460  EXT
         1         1  DCM       C              -1.7620781899        2.1328296881        0.9165929620  CLST      1               1.0000000000
         2         1  DCM       H1             -2.4177670172        1.6319703749        0.1719890321  CLST      1               1.0000000000
         3         1  DCM       H2             -0.6919979417        1.9389207185        0.6994157990  CLST      1               1.0000000000
         4         1  DCM       CL1            -2.0532563031        3.8955920952        0.8617782878  CLST      1               1.0000000000
         5         1  DCM       CL2            -2.1462836201        1.5057683516        2.5463017620  CLST      1               1.0000000000
         6         2  DCM       C              18.5262424283       -5.1130928007        0.5775962387  CLST      2               1.0000000000
         7         2  DCM       H1             19.4220710783       -4.4796141608        0.7495366197  CLST      2               1.0000000000
         8         2  DCM       H2             18.8148787871       -6.1368353271        0.2582351562  CLST      2               1.0000000000
         9         2  DCM       CL1            17.5907353532       -5.2207039487        2.0975933744  CLST      2               1.0000000000
        10         2  DCM       CL2            17.5229945526       -4.3665602403       -0.7005997427  CLST      2               1.0000000000
        11         3  DCM       C               2.4760349191       -2.3411780783        1.7345188343  CLST      3               1.0000000000
        12         3  DCM       H1              1.9929069966       -1.8135391824        0.8860911126  CLST      3               1.0000000000
        13         3  DCM       H2              2.7503171506       -1.6310225389        2.5427439779  CLST      3               1.0000000000
        14         3  DCM       CL1             1.3381487739       -3.5547469747        2.3867958506  CLST      3               1.0000000000
        15         3  DCM       CL2             3.9547109520       -3.1523518911        1.1422519210  CLST      3               1.0000000000
        16         4  DCM       C               3.9399564334        5.7886839909      -11.5978199589  CLST      4               1.0000000000
        17         4  DCM       H1              3.3966538057        6.2195874564      -12.4666272458  CLST      4               1.0000000000
        18         4  DCM       H2              3.2749079172        5.1352242716      -10.9964710802  CLST      4               1.0000000000
        19         4  DCM       CL1             5.3197783896        4.8240764315      -12.1995379464  CLST      4               1.0000000000
        20         4  DCM       CL2             4.5350783184        7.1197952061      -10.5624932298  CLST      4               1.0000000000
        21         5  DCM       C               5.1709621670        2.3907535281       -2.1904194394  CLST      5               1.0000000000
        22         5  DCM       H1              4.6707682308        2.2314337540       -3.1694294949  CLST      5               1.0000000000
        23         5  DCM       H2              4.4882198063        2.1481268348       -1.3492031422  CLST      5               1.0000000000
        24         5  DCM       CL1             5.6599292907        4.1053625943       -2.0589823719  CLST      5               1.0000000000
        25         5  DCM       CL2             6.6109778845        1.3347707279       -2.0911243712  CLST      5               1.0000000000
        26         6  DCM       C               0.8937020581       -5.4512924888       -5.4958659860  CLST      6               1.0000000000
        27         6  DCM       H1             -0.1968894806       -5.2411978601       -5.4644943123  CLST      6               1.0000000000
        28         6  DCM       H2              1.2030765106       -6.0887622295       -4.6412208994  CLST      6               1.0000000000
        29         6  DCM       CL1             1.2801406972       -6.2998300507       -7.0197004841  CLST      6               1.0000000000
        30         6  DCM       CL2             1.7798228429       -3.9012160380       -5.4246638548  CLST      6               1.0000000000
        31         7  DCM       C               0.2593019475       -4.9737023868       -1.7886697455  CLST      7               1.0000000000
        32         7  DCM       H1             -0.1573083448       -4.8549936689       -2.8102231329  CLST      7               1.0000000000
        33         7  DCM       H2             -0.5314719719       -4.8377901455       -1.0230661449  CLST      7               1.0000000000
        34         7  DCM       CL1             0.9612276329       -6.6073619189       -1.6198781759  CLST      7               1.0000000000
        35         7  DCM       CL2             1.5235507381       -3.7443667424       -1.5281187728  CLST      7               1.0000000000
        36         8  DCM       C               2.8465244476        9.2849489145        0.1764449161  CLST      8               1.0000000000
        37         8  DCM       H1              3.6052242846        8.5654128930       -0.1969987203  CLST      8               1.0000000000
        38         8  DCM       H2              2.7981835920       10.1867671507       -0.4697951336  CLST      8               1.0000000000
        39         8  DCM       CL1             3.2860165518        9.7782263768        1.8350435897  CLST      8               1.0000000000
        40         8  DCM       CL2             1.2475081652        8.4881128091        0.1871061590  CLST      8               1.0000000000
        41         9  DCM       C              -6.3293825100       -0.6481770021        0.1056511994  CLST      9               1.0000000000
        42         9  DCM       H1             -6.7757444671       -1.6259041226        0.3935837440  CLST      9               1.0000000000
        43         9  DCM       H2             -7.1121752873        0.1315046064        0.0089030974  CLST      9               1.0000000000
        44         9  DCM       CL1            -5.1612818910       -0.1524732160        1.3603388538  CLST      9               1.0000000000
        45         9  DCM       CL2            -5.4865244405       -0.8282227900       -1.4573065465  CLST      9               1.0000000000
        46        10  DCM       C               4.8128629649       -5.2473870925       -6.9620188886  CLST      10              1.0000000000
        47        10  DCM       H1              3.9707912246       -4.9320007217       -7.6117279810  CLST      10              1.0000000000
        48        10  DCM       H2              4.5046593603       -6.0806581146       -6.2954505588  CLST      10              1.0000000000
        49        10  DCM       CL1             6.1744220110       -5.7875869681       -7.9857121368  CLST      10              1.0000000000
        50        10  DCM       CL2             5.3233040135       -3.8534406752       -5.9687850071  CLST      10              1.0000000000
        51        11  DCM       C              -5.5869560708        2.4015944849       -3.0652790385  CLST      11              1.0000000000
        52        11  DCM       H1             -5.5424856431        3.1369454674       -3.8944882353  CLST      11              1.0000000000
        53        11  DCM       H2             -5.4052553022        1.3716322881       -3.4356321480  CLST      11              1.0000000000
        54        11  DCM       CL1            -7.2040381742        2.4688007470       -2.3098699205  CLST      11              1.0000000000
        55        11  DCM       CL2            -4.3396327428        2.8127244417       -1.8550406659  CLST      11              1.0000000000
        56        12  DCM       C             -13.6977156931        0.0563187707       -5.4871793072  CLST      12              1.0000000000
        57        12  DCM       H1            -13.0145398579        0.3016617779       -4.6469071665  CLST      12              1.0000000000
        58        12  DCM       H2            -13.2391176870       -0.6953468185       -6.1642391914  CLST      12              1.0000000000
        59        12  DCM       CL1           -15.2214823086       -0.6037130293       -4.8250050821  CLST      12              1.0000000000
        60        12  DCM       CL2           -14.0359614936        1.5465991136       -6.4148065693  CLST      12              1.0000000000
        61        13  DCM       C             -11.1284091814       -0.6257976117        2.4004231915  CLST      13              1.0000000000
        62        13  DCM       H1            -11.2988401212       -0.8437577030        3.4760169284  CLST      13              1.0000000000
        63        13  DCM       H2            -11.5495209114        0.3630521720        2.1226079857  CLST      13              1.0000000000
        64        13  DCM       CL1            -9.3720827913       -0.6159315130        2.0782776485  CLST      13              1.0000000000
        65        13  DCM       CL2           -11.9187171030       -1.8915597573        1.4184958232  CLST      13              1.0000000000
        66        14  DCM       C              -1.9320052091       -2.5617170115        6.0918690703  CLST      14              1.0000000000
        67        14  DCM       H1             -1.6995138243       -1.6948679342        6.7421542030  CLST      14              1.0000000000
        68        14  DCM       H2             -1.2539740888       -3.4137470052        6.3077024474  CLST      14              1.0000000000
        69        14  DCM       CL1            -3.6185190006       -3.0734055604        6.3883225521  CLST      14              1.0000000000
        70        14  DCM       CL2            -1.7353159649       -2.0718928182        4.3840931168  CLST      14              1.0000000000
        71        15  DCM       C              -2.6533818143        9.3587820710       -0.6483043135  CLST      15              1.0000000000
        72        15  DCM       H1             -1.5655030251        9.1293643482       -0.6961424160  CLST      15              1.0000000000
        73        15  DCM       H2             -3.2532849432        8.4285978309       -0.6231666271  CLST      15              1.0000000000
        74        15  DCM       CL1            -2.9859485969       10.3036600924        0.8301728479  CLST      15              1.0000000000
        75        15  DCM       CL2            -3.1163410625       10.3089233605       -2.0900118397  CLST      15              1.0000000000
        76        16  DCM       C              -1.2791459829       -6.8721454707        1.3130536987  CLST      16              1.0000000000
        77        16  DCM       H1             -0.4619549185       -6.1419406964        1.1320447272  CLST      16              1.0000000000
        78        16  DCM       H2             -1.8444821652       -6.6144329637        2.2317797138  CLST      16              1.0000000000
        79        16  DCM       CL1            -2.4034216704       -6.8629110645       -0.0755388895  CLST      16              1.0000000000
        80        16  DCM       CL2            -0.5698486207       -8.4983151116        1.5016278322  CLST      16              1.0000000000
        81        17  DCM       C               5.2409086107      -11.6674742307        1.9200427513  CLST      17              1.0000000000
        82        17  DCM       H1              6.2443151484      -11.1923305339        1.9464475566  CLST      17              1.0000000000
        83        17  DCM       H2              4.9862129508      -12.1167426303        2.9029046222  CLST      17              1.0000000000
        84        17  DCM       CL1             4.0185962306      -10.4278829985        1.5156007800  CLST      17              1.0000000000
        85        17  DCM       CL2             5.2372616083      -12.9504251091        0.6759951523  CLST      17              1.0000000000
        86        18  DCM       C              -5.6190920202        3.3644743625        1.4887243843  CLST      18              1.0000000000
        87        18  DCM       H1             -4.9336896366        2.6453458547        0.9956793750  CLST      18              1.0000000000
        88        18  DCM       H2             -5.5453087717        4.3637309497        1.0154016296  CLST      18              1.0000000000
        89        18  DCM       CL1            -7.2967771027        2.7778963997        1.3371640252  CLST      18              1.0000000000
        90        18  DCM       CL2            -5.1790212162        3.4960097202        3.2132835468  CLST      18              1.0000000000
        91        19  DCM       C              -6.1922030123       -1.8853680929       -8.6476782502  CLST      19              1.0000000000
        92        19  DCM       H1             -5.1416738276       -1.8080692022       -8.2943064643  CLST      19              1.0000000000
        93        19  DCM       H2             -6.2320079506       -2.0843445868       -9.7389683229  CLST      19              1.0000000000
        94        19  DCM       CL1            -7.0364480695       -0.3470624375       -8.3038220093  CLST      19              1.0000000000
        95        19  DCM       CL2            -6.9962329865       -3.2265963371       -7.7810882112  CLST      19              1.0000000000
        96        20  DCM       C               2.7298361858       11.6050006662       -3.8989389342  CLST      20              1.0000000000
        97        20  DCM       H1              2.1056925010       10.7574780717       -3.5458336818  CLST      20              1.0000000000
        98        20  DCM       H2              3.5016770553       11.2605873969       -4.6165452324  CLST      20              1.0000000000
        99        20  DCM       CL1             1.6752960275       12.7980287880       -4.7101214691  CLST      20              1.0000000000
       100        20  DCM       CL2             3.5377080247       12.3602093810       -2.4943817100  CLST      20              1.0000000000
       101        21  DCM       C               0.5075241174       15.1721021126       -2.1239254129  CLST      21              1.0000000000
       102        21  DCM       H1              0.9424139077       15.8775177395       -2.8628593448  CLST      21              1.0000000000
       103        21  DCM       H2              1.1758673149       14.2984976876       -1.9683210767  CLST      21              1.0000000000
       104        21  DCM       CL1             0.2868246436       16.0200624587       -0.5660696207  CLST      21              1.0000000000
       105        21  DCM       CL2            -1.0737938894       14.5966997157       -2.7283626101  CLST      21              1.0000000000
       106        22  DCM       C              -5.5717435875       -3.5688872495        9.5536511185  CLST      22              1.0000000000
       107        22  DCM       H1             -4.6476136171       -4.1745438480        9.6677959277  CLST      22              1.0000000000
       108        22  DCM       H2             -5.5763073404       -3.0292764448        8.5824486576  CLST      22              1.0000000000
       109        22  DCM       CL1            -5.6608496556       -2.3742867037       10.8795010056  CLST      22              1.0000000000
       110        22  DCM       CL2            -6.9892843002       -4.6537365556        9.6267903237  CLST      22              1.0000000000
       111        23  DCM       C             -14.8047937106        2.5790230269       -2.8617010355  CLST      23              1.0000000000
       112        23  DCM       H1            -14.5759978875        1.5425720189       -2.5342719845  CLST      23              1.0000000000
       113        23  DCM       H2            -15.1968618446        2.5916136905       -3.9004374358  CLST      23              1.0000000000
       114        23  DCM       CL1           -16.0381532550        3.2770937130       -1.7729967596  CLST      23              1.0000000000
       115        23  DCM       CL2           -13.3105603668        3.5573667344       -2.7902838320  CLST      23              1.0000000000
       116        24  DCM       C              -1.8668321253       -2.1591604587       10.4154221287  CLST      24              1.0000000000
       117        24  DCM       H1             -0.8538533323       -1.7638123410       10.6590489609  CLST      24              1.0000000000
       118        24  DCM       H2             -2.4592602610       -2.3341989818       11.3344504721  CLST      24              1.0000000000
       119        24  DCM       CL1            -2.7227488238       -0.9673243595        9.3947412008  CLST      24              1.0000000000
       120        24  DCM       CL2            -1.6972264972       -3.7055691116        9.5335155934  CLST      24              1.0000000000
       121        25  DCM       C               7.6625596302       -6.6225010137       -4.4162693552  CLST      25              1.0000000000
       122        25  DCM       H1              7.1723698382       -5.6258664624       -4.4281816802  CLST      25              1.0000000000
       123        25  DCM       H2              8.5204149252       -6.6522860339       -5.1201873416  CLST      25              1.0000000000
       124        25  DCM       CL1             8.2544640561       -6.9599821848       -2.7648119771  CLST      25              1.0000000000
       125        25  DCM       CL2             6.4741867776       -7.8674536697       -4.8972564076  CLST      25              1.0000000000
       126        26  DCM       C               4.8305738156        5.8621604183        7.1087995294  CLST      26              1.0000000000
       127        26  DCM       H1              5.9291776901        5.9935853129        7.1908680590  CLST      26              1.0000000000
       128        26  DCM       H2              4.3128575155        6.8443013591        7.1069964015  CLST      26              1.0000000000
       129        26  DCM       CL1             4.4595244748        5.0017899318        5.5871579629  CLST      26              1.0000000000
       130        26  DCM       CL2             4.2545466179        4.9030884150        8.5019985970  CLST      26              1.0000000000
       131        27  DCM       C               4.9216911472       -5.2994893709       -1.9205181065  CLST      27              1.0000000000
       132        27  DCM       H1              4.2155488437       -5.0715531262       -1.0978045662  CLST      27              1.0000000000
       133        27  DCM       H2              5.5725436496       -6.1636858748       -1.6633813767  CLST      27              1.0000000000
       134        27  DCM       CL1             3.9855103914       -5.7059694820       -3.3826523895  CLST      27              1.0000000000
       135        27  DCM       CL2             5.9424966198       -3.8671684475       -2.2295698859  CLST      27              1.0000000000
       136        28  DCM       C              -8.6383234388       -1.4043290564        8.8861613265  CLST      28              1.0000000000
       137        28  DCM       H1             -7.6457296493       -1.6229966145        8.4414015411  CLST      28              1.0000000000
       138        28  DCM       H2             -8.8835066955       -2.1290851787        9.6937568908  CLST      28              1.0000000000
       139        28  DCM       CL1            -8.6019233849        0.2458014021        9.5639670276  CLST      28              1.0000000000
       140        28  DCM       CL2            -9.8868357028       -1.5121671183        7.6095523021  CLST      28              1.0000000000
       141        29  DCM       C               3.7760480103       -1.2462004665       -3.1911535185  CLST      29              1.0000000000
       142        29  DCM       H1              3.5052446561       -2.3228690351       -3.2402113503  CLST      29              1.0000000000
       143        29  DCM       H2              4.8775427356       -1.1146995277       -3.1743428642  CLST      29              1.0000000000
       144        29  DCM       CL1             3.1122780392       -0.4192619563       -4.6275993793  CLST      29              1.0000000000
       145        29  DCM       CL2             3.0852498606       -0.5308622798       -1.7057010625  CLST      29              1.0000000000
       146        30  DCM       C              -6.4764523010        9.5403579354       -0.6533160762  CLST      30              1.0000000000
       147        30  DCM       H1             -6.0156756790        8.6728530238       -0.1345660988  CLST      30              1.0000000000
       148        30  DCM       H2             -5.8434700602       10.4473975760       -0.5487004561  CLST      30              1.0000000000
       149        30  DCM       CL1            -6.6630325393        9.1533107434       -2.3890330413  CLST      30              1.0000000000
       150        30  DCM       CL2            -8.0791213627        9.8646310266        0.0676479936  CLST      30              1.0000000000
       151        31  DCM       C              -3.4307454072        6.8940750742       -3.3706515592  CLST      31              1.0000000000
       152        31  DCM       H1             -4.1997819104        7.4654757823       -2.8113236333  CLST      31              1.0000000000
       153        31  DCM       H2             -2.7845086364        7.5735535058       -3.9661255241  CLST      31              1.0000000000
       154        31  DCM       CL1            -2.4164192339        5.9939510493       -2.2050812513  CLST      31              1.0000000000
       155        31  DCM       CL2            -4.2496409152        5.7527616681       -4.4752905632  CLST      31              1.0000000000
       156        32  DCM       C              12.0411001395        4.7771951586        1.4652446590  CLST      32              1.0000000000
       157        32  DCM       H1             12.5761401996        5.4716625066        2.1471246210  CLST      32              1.0000000000
       158        32  DCM       H2             12.3704146165        4.9163747429        0.4133166979  CLST      32              1.0000000000
       159        32  DCM       CL1            12.3808952259        3.0941510652        1.9640996192  CLST      32              1.0000000000
       160        32  DCM       CL2            10.2854004147        5.0962088982        1.5718307304  CLST      32              1.0000000000
       161        33  DCM       C               7.0328691769        2.4372299853        7.3909656949  CLST      33              1.0000000000
       162        33  DCM       H1              6.2035603967        3.0330828416        6.9555048293  CLST      33              1.0000000000
       163        33  DCM       H2              7.9884851161        3.0006937246        7.3538131573  CLST      33              1.0000000000
       164        33  DCM       CL1             6.6449912354        2.0545910238        9.0934436223  CLST      33              1.0000000000
       165        33  DCM       CL2             7.2112716162        0.9232321558        6.4588678050  CLST      33              1.0000000000
       166        34  DCM       C              -2.1499373378       -1.7656484027        0.6250586792  CLST      34              1.0000000000
       167        34  DCM       H1             -2.9686654464       -1.7158523267       -0.1230279050  CLST      34              1.0000000000
       168        34  DCM       H2             -2.4085035283       -1.1951059846        1.5405211154  CLST      34              1.0000000000
       169        34  DCM       CL1            -1.8814151483       -3.4675768230        1.0802510920  CLST      34              1.0000000000
       170        34  DCM       CL2            -0.6588235457       -1.0890173167       -0.0875335499  CLST      34              1.0000000000
       171        35  DCM       C               5.1025932079       -8.8691389571        4.6543921535  CLST      35              1.0000000000
       172        35  DCM       H1              4.2761280845       -8.7325452130        3.9279775814  CLST      35              1.0000000000
       173        35  DCM       H2              5.0815247106       -8.0803181780        5.4361928515  CLST      35              1.0000000000
       174        35  DCM       CL1             4.9252723519      -10.4699155311        5.4303904373  CLST      35              1.0000000000
       175        35  DCM       CL2             6.6596974884       -8.7852966340        3.7789834483  CLST      35              1.0000000000
       176        36  DCM       C               9.0031274550       -0.5566678001       -4.7430196813  CLST      36              1.0000000000
       177        36  DCM       H1              9.0065211989        0.3677469337       -4.1291140164  CLST      36              1.0000000000
       178        36  DCM       H2              9.7887990117       -1.2648873585       -4.4070341636  CLST      36              1.0000000000
       179        36  DCM       CL1             7.4145084097       -1.3541854104       -4.5806662849  CLST      36              1.0000000000
       180        36  DCM       CL2             9.3052683564       -0.1280148373       -6.4512493799  CLST      36              1.0000000000
       181        37  DCM       C              -4.7489590046       -4.5606911667       -1.8806051367  CLST      37              1.0000000000
       182        37  DCM       H1             -4.7302505761       -5.6550189921       -2.0618506765  CLST      37              1.0000000000
       183        37  DCM       H2             -5.4762219720       -4.0578777891       -2.5510833054  CLST      37              1.0000000000
       184        37  DCM       CL1            -3.1217398798       -3.8996534105       -2.1918522349  CLST      37              1.0000000000
       185        37  DCM       CL2            -5.2084706786       -4.2570401682       -0.1806847509  CLST      37              1.0000000000
       186        38  DCM       C               0.1090708897       12.2402115481        0.3832166726  CLST      38              1.0000000000
       187        38  DCM       H1             -0.6436609747       13.0564658511        0.4052009946  CLST      38              1.0000000000
       188        38  DCM       H2             -0.1610833099       11.4261910983        1.0878748109  CLST      38              1.0000000000
       189        38  DCM       CL1             1.7035987588       12.9017807020        0.8435098918  CLST      38              1.0000000000
       190        38  DCM       CL2             0.1890035077       11.5685944742       -1.2691124940  CLST      38              1.0000000000
       191        39  DCM       C              -2.6364173787      -10.0133564283        7.8302066173  CLST      39              1.0000000000
       192        39  DCM       H1             -3.5271473367      -10.0163266725        7.1636186778  CLST      39              1.0000000000
       193        39  DCM       H2             -2.2906506197       -8.9742076598        8.0202481924  CLST      39              1.0000000000
       194        39  DCM       CL1            -3.0770641293      -10.7759163357        9.3835587962  CLST      39              1.0000000000
       195        39  DCM       CL2            -1.3162709722      -10.9343668406        7.0515198916  CLST      39              1.0000000000
       196        40  DCM       C              11.5638975873        4.7873840541        5.2076955315  CLST      40              1.0000000000
       197        40  DCM       H1             12.5383656488        4.2597790691        5.1431784685  CLST      40              1.0000000000
       198        40  DCM       H2             10.8932700045        4.4865035304        4.3771347445  CLST      40              1.0000000000
       199        40  DCM       CL1            10.7753186576        4.3764850439        6.7564906454  CLST      40              1.0000000000
       200        40  DCM       CL2            11.8492443769        6.5484043179        5.1177077690  CLST      40              1.0000000000
       201        41  DCM       C               6.2553494706        1.8113155447       -5.8565273658  CLST      41              1.0000000000
       202        41  DCM       H1              6.8743614832        1.3288985779       -6.6391811468  CLST      41              1.0000000000
       203        41  DCM       H2              6.1277000204        1.1451560058       -4.9800926778  CLST      41              1.0000000000
       204        41  DCM       CL1             7.0633422947        3.3176855874       -5.3383748234  CLST      41              1.0000000000
       205        41  DCM       CL2             4.6446912612        2.1668108292       -6.5377244085  CLST      41              1.0000000000
       206        42  DCM       C               9.5921221721        6.3314840431        9.4997166643  CLST      42              1.0000000000
       207        42  DCM       H1              9.9387765885        6.8125716746        8.5597571394  CLST      42              1.0000000000
       208        42  DCM       H2             10.3544621278        5.6262258184        9.8913462724  CLST      42              1.0000000000
       209        42  DCM       CL1             8.0867746073        5.4274301365        9.1719210075  CLST      42              1.0000000000
       210        42  DCM       CL2             9.2849354191        7.5963433623       10.7248752846  CLST      42              1.0000000000
       211        43  DCM       C              -7.9162422389        5.8665739855       -0.6800958598  CLST      43              1.0000000000
       212        43  DCM       H1             -8.3792269985        4.8561516280       -0.6984893251  CLST      43              1.0000000000
       213        43  DCM       H2             -8.5242677584        6.5974005707       -1.2538490823  CLST      43              1.0000000000
       214        43  DCM       CL1            -7.7996771440        6.4233318221        1.0086345797  CLST      43              1.0000000000
       215        43  DCM       CL2            -6.2850111915        5.7801867890       -1.3985647935  CLST      43              1.0000000000
       216        44  DCM       C              -0.7983512795       -7.6663225715        5.1975872458  CLST      44              1.0000000000
       217        44  DCM       H1             -0.6780447469       -7.8528481917        6.2858542055  CLST      44              1.0000000000
       218        44  DCM       H2              0.0293671717       -8.1256726826        4.6197061569  CLST      44              1.0000000000
       219        44  DCM       CL1            -2.3452775978       -8.3715844205        4.6485106098  CLST      44              1.0000000000
       220        44  DCM       CL2            -0.7988463459       -5.9040562221        4.9050525712  CLST      44              1.0000000000
       221        45  DCM       C              10.2318954045        1.1199505728        8.6409559102  CLST      45              1.0000000000
       222        45  DCM       H1              9.3630651595        0.4740839751        8.8859160054  CLST      45              1.0000000000
       223        45  DCM       H2             10.1347460454        1.5490284533        7.6211236890  CLST      45              1.0000000000
       224        45  DCM       CL1            10.3165032751        2.4543470225        9.8276705980  CLST      45              1.0000000000
       225        45  DCM       CL2            11.7271229434        0.1441058052        8.7199992281  CLST      45              1.0000000000
       226        46  DCM       C              -7.8840183004       -2.6913736410        4.6735680912  CLST      46              1.0000000000
       227        46  DCM       H1             -8.5451167923       -3.2847607229        4.0058982964  CLST      46              1.0000000000
       228        46  DCM       H2             -8.3906441609       -1.7669872616        5.0208204223  CLST      46              1.0000000000
       229        46  DCM       CL1            -7.4361931948       -3.6830932577        6.0903172725  CLST      46              1.0000000000
       230        46  DCM       CL2            -6.4109303046       -2.2390335553        3.7743286612  CLST      46              1.0000000000
       231        47  DCM       C              -4.5030907036       -1.7345367035       -4.6836336610  CLST      47              1.0000000000
       232        47  DCM       H1             -5.5222727287       -1.8917323002       -4.2728223359  CLST      47              1.0000000000
       233        47  DCM       H2             -3.7629820962       -1.5994294862       -3.8683628194  CLST      47              1.0000000000
       234        47  DCM       CL1            -4.0462685389       -3.1647023605       -5.6510995461  CLST      47              1.0000000000
       235        47  DCM       CL2            -4.4993630976       -0.2715964573       -5.7093023689  CLST      47              1.0000000000
       236        48  DCM       C               2.1538232600       -2.8399319860       -9.1949765885  CLST      48              1.0000000000
       237        48  DCM       H1              1.8025480596       -3.7012037517       -8.5894753727  CLST      48              1.0000000000
       238        48  DCM       H2              1.4060923013       -2.5624938033       -9.9669026826  CLST      48              1.0000000000
       239        48  DCM       CL1             2.4196173368       -1.4399804507       -8.1151063540  CLST      48              1.0000000000
       240        48  DCM       CL2             3.6868568013       -3.2825190653      -10.0011833397  CLST      48              1.0000000000
       241        49  DCM       C              -6.4621392286       -7.9850006705       -0.7282159837  CLST      49              1.0000000000
       242        49  DCM       H1             -7.0080649078       -8.8840513448       -0.3731959209  CLST      49              1.0000000000
       243        49  DCM       H2             -5.9766507908       -7.4550107312        0.1169542951  CLST      49              1.0000000000
       244        49  DCM       CL1            -7.6177916457       -6.8733419120       -1.5174803766  CLST      49              1.0000000000
       245        49  DCM       CL2            -5.2072318274       -8.4898915393       -1.8982074301  CLST      49              1.0000000000
       246        50  DCM       C              -8.9279359321       -1.6556009378       -5.2474209183  CLST      50              1.0000000000
       247        50  DCM       H1             -8.9955497830       -1.4784409806       -6.3407473026  CLST      50              1.0000000000
       248        50  DCM       H2             -8.4506757964       -2.6343952094       -5.0314010779  CLST      50              1.0000000000
       249        50  DCM       CL1            -7.9529836190       -0.3547358410       -4.5055174616  CLST      50              1.0000000000
       250        50  DCM       CL2           -10.5763557259       -1.6464180935       -4.5598800422  CLST      50              1.0000000000
       251        51  DCM       C               5.6417396595        8.1783706725       10.2187542663  CLST      51              1.0000000000
       252        51  DCM       H1              5.9513406034        8.8903579420       11.0128141114  CLST      51              1.0000000000
       253        51  DCM       H2              6.0101966000        7.1530515414       10.4379181957  CLST      51              1.0000000000
       254        51  DCM       CL1             3.8566390033        8.1464001686       10.1250770747  CLST      51              1.0000000000
       255        51  DCM       CL2             6.3239242279        8.7224846432        8.6589221883  CLST      51              1.0000000000
       256        52  DCM       C               1.8287062104      -12.0068835192       -1.1137978362  CLST      52              1.0000000000
       257        52  DCM       H1              1.0062892761      -12.7526192212       -1.1261725982  CLST      52              1.0000000000
       258        52  DCM       H2              2.5420546752      -12.2170102814       -0.2908696031  CLST      52              1.0000000000
       259        52  DCM       CL1             1.1351809764      -10.3765133775       -0.8820691167  CLST      52              1.0000000000
       260        52  DCM       CL2             2.7005883594      -12.0759392242       -2.6723532833  CLST      52              1.0000000000
       261        53  DCM       C               1.6280103342      -12.3392566472        4.2735968504  CLST      53              1.0000000000
       262        53  DCM       H1              0.6762166032      -12.7365644042        4.6862990781  CLST      53              1.0000000000
       263        53  DCM       H2              2.4682900636      -12.4971191091        4.9818501326  CLST      53              1.0000000000
       264        53  DCM       CL1             1.4419703731      -10.5864178998        3.9736883131  CLST      53              1.0000000000
       265        53  DCM       CL2             1.9937273746      -13.1848670330        2.7411095490  CLST      53              1.0000000000
       266        54  DCM       C              -1.3224047007       -1.3429051979       -7.4896459986  CLST      54              1.0000000000
       267        54  DCM       H1             -1.8295494181       -1.1467136824       -6.5229456275  CLST      54              1.0000000000
       268        54  DCM       H2             -0.3447104940       -0.8192048312       -7.5379228695  CLST      54              1.0000000000
       269        54  DCM       CL1            -1.0568265560       -3.1024916111       -7.6570669327  CLST      54              1.0000000000
       270        54  DCM       CL2            -2.3651140604       -0.7593700765       -8.8184280856  CLST      54              1.0000000000
       271        55  DCM       C              -4.9536260906        7.1830854678        3.0921331710  CLST      55              1.0000000000
       272        55  DCM       H1             -5.7813657672        6.4677170818        3.2913079297  CLST      55              1.0000000000
       273        55  DCM       H2             -4.1782204577        7.1248368224        3.8824844857  CLST      55              1.0000000000
       274        55  DCM       CL1            -5.6205275454        8.8394940341        3.0437780186  CLST      55              1.0000000000
       275        55  DCM       CL2            -4.2126449725        6.7882286587        1.5161728216  CLST      55              1.0000000000
       276        56  DCM       C              -2.1007837670        4.4692981299        4.6138083583  CLST      56              1.0000000000
       277        56  DCM       H1             -2.3552673091        4.8891709366        3.6182385765  CLST      56              1.0000000000
       278        56  DCM       H2             -2.6937577750        3.5547752466        4.8213946233  CLST      56              1.0000000000
       279        56  DCM       CL1            -0.3640007016        4.0503075371        4.6427928431  CLST      56              1.0000000000
       280        56  DCM       CL2            -2.4574482084        5.6891733915        5.8690297757  CLST      56              1.0000000000
       281        57  DCM       C              11.4681271673        0.4361469273        4.7369389463  CLST      57              1.0000000000
       282        57  DCM       H1             11.7918214505       -0.0074385097        3.7717719910  CLST      57              1.0000000000
       283        57  DCM       H2             11.1411242883       -0.3492848537        5.4505927660  CLST      57              1.0000000000
       284        57  DCM       CL1            12.8380398383        1.3365312071        5.4491525352  CLST      57              1.0000000000
       285        57  DCM       CL2            10.1041503730        1.5499592199        4.4333332367  CLST      57              1.0000000000
       286        58  DCM       C               3.6410719744        9.1724907582       -7.2864688590  CLST      58              1.0000000000
       287        58  DCM       H1              3.7509061399        8.3031827408       -7.9659688870  CLST      58              1.0000000000
       288        58  DCM       H2              3.7115482744       10.1294163395       -7.8454212758  CLST      58              1.0000000000
       289        58  DCM       CL1             2.0438502964        9.0855297344       -6.4876146793  CLST      58              1.0000000000
       290        58  DCM       CL2             4.9385523888        9.1173391394       -6.0567192043  CLST      58              1.0000000000
       291        59  DCM       C              -1.3248573573        8.6438612523        3.7437092949  CLST      59              1.0000000000
       292        59  DCM       H1             -2.3252336227        9.0547595048        3.4919116479  CLST      59              1.0000000000
       293        59  DCM       H2             -1.3035932698        8.2563931538        4.7836602163  CLST      59              1.0000000000
       294        59  DCM       CL1            -0.9432537291        7.3071985941        2.6216870051  CLST      59              1.0000000000
       295        59  DCM       CL2            -0.1018826824        9.9369545423        3.5831893690  CLST      59              1.0000000000
       296        60  DCM       C               2.9060937360       -6.8557950632        1.3123063821  CLST      60              1.0000000000
       297        60  DCM       H1              2.6020202593       -7.7585471558        0.7401672123  CLST      60              1.0000000000
       298        60  DCM       H2              2.5197387034       -5.9302989816        0.8350615362  CLST      60              1.0000000000
       299        60  DCM       CL1             2.2547337483       -6.9676109502        2.9717855789  CLST      60              1.0000000000
       300        60  DCM       CL2             4.6889336806       -6.7745120195        1.3706370678  CLST      60              1.0000000000
       301        61  DCM       C               3.6584085958       10.0430996882        5.3685011220  CLST      61              1.0000000000
       302        61  DCM       H1              3.9923645203       11.0693179970        5.1122249225  CLST      61              1.0000000000
       303        61  DCM       H2              2.7791393335        9.7453922961        4.7596886144  CLST      61              1.0000000000
       304        61  DCM       CL1             4.9961430178        8.8967483143        5.0576409658  CLST      61              1.0000000000
       305        61  DCM       CL2             3.2026346510        9.9890314430        7.0950691260  CLST      61              1.0000000000
       306        62  DCM       C               1.0479456684        6.8171371306        6.9549055582  CLST      62              1.0000000000
       307        62  DCM       H1              1.9321520031        6.8176335538        7.6260456542  CLST      62              1.0000000000
       308        62  DCM       H2              0.4978028019        5.8551831270        7.0181237481  CLST      62              1.0000000000
       309        62  DCM       CL1            -0.0429586811        8.1481537815        7.4378478921  CLST      62              1.0000000000
       310        62  DCM       CL2             1.5927063329        7.0639199821        5.2708784771  CLST      62              1.0000000000
       311        63  DCM       C               5.7747531749       -9.8355467526       -1.6669263041  CLST      63              1.0000000000
       312        63  DCM       H1              6.3060978966       -9.7568359351       -2.6390892562  CLST      63              1.0000000000
       313        63  DCM       H2              5.5128643889      -10.8902494430       -1.4413673555  CLST      63              1.0000000000
       314        63  DCM       CL1             6.8342288313       -9.2015566991       -0.3733035332  CLST      63              1.0000000000
       315        63  DCM       CL2             4.2733716047       -8.8702146579       -1.7461570738  CLST      63              1.0000000000
       316        64  DCM       C               7.8074934062        3.7620721694       -9.0668914025  CLST      64              1.0000000000
       317        64  DCM       H1              8.2163000616        4.2638090177       -9.9682458165  CLST      64              1.0000000000
       318        64  DCM       H2              8.4681613395        3.9115791717       -8.1873715548  CLST      64              1.0000000000
       319        64  DCM       CL1             6.1966819664        4.4474396719       -8.7052021042  CLST      64              1.0000000000
       320        64  DCM       CL2             7.6633141557        2.0097590975       -9.3913243541  CLST      64              1.0000000000
       321        65  DCM       C              -9.4863974019       -3.6558170760       -0.8632667870  CLST      65              1.0000000000
       322        65  DCM       H1            -10.2386206553       -2.8403551909       -0.8123067609  CLST      65              1.0000000000
       323        65  DCM       H2             -9.9558823404       -4.6125576187       -1.1752181424  CLST      65              1.0000000000
       324        65  DCM       CL1            -8.2305502592       -3.2134386531       -2.0534570223  CLST      65              1.0000000000
       325        65  DCM       CL2            -8.7448389922       -3.8752106234        0.7477248971  CLST      65              1.0000000000
       326        66  DCM       C             -10.6287671040        1.6143169304       -1.4294315983  CLST      66              1.0000000000
       327        66  DCM       H1            -10.1854259916        2.2688283056       -2.2071411687  CLST      66              1.0000000000
       328        66  DCM       H2            -11.6948298434        1.3977253589       -1.6488359052  CLST      66              1.0000000000
       329        66  DCM       CL1            -9.7268831301        0.0742192656       -1.3769817674  CLST      66              1.0000000000
       330        66  DCM       CL2           -10.5167952567        2.4371234638        0.1505460104  CLST      66              1.0000000000
       331        67  DCM       C              -1.2226269336      -11.9349717560        1.4926279938  CLST      67              1.0000000000
       332        67  DCM       H1             -1.8338491741      -11.2880027869        0.8291648950  CLST      67              1.0000000000
       333        67  DCM       H2             -0.1761113226      -11.5684326241        1.5430927755  CLST      67              1.0000000000
       334        67  DCM       CL1            -1.9208376745      -11.9197457287        3.1387155072  CLST      67              1.0000000000
       335        67  DCM       CL2            -1.2251813924      -13.6012927789        0.8470920528  CLST      67              1.0000000000
       336        68  DCM       C              -8.9954054785        1.7442971337        5.8840038164  CLST      68              1.0000000000
       337        68  DCM       H1             -8.9188186634        2.8338111682        6.0872871521  CLST      68              1.0000000000
       338        68  DCM       H2             -8.7368449130        1.1529429832        6.7863468577  CLST      68              1.0000000000
       339        68  DCM       CL1           -10.6688582449        1.3574196904        5.3917740884  CLST      68              1.0000000000
       340        68  DCM       CL2            -7.8667113391        1.3119511105        4.5704052765  CLST      68              1.0000000000
       341        69  DCM       C              -3.1026432890      -12.9211851254       -2.3161320756  CLST      69              1.0000000000
       342        69  DCM       H1             -2.9535069175      -13.9160953092       -1.8458133860  CLST      69              1.0000000000
       343        69  DCM       H2             -3.6834250439      -13.0061977357       -3.2588854815  CLST      69              1.0000000000
       344        69  DCM       CL1            -1.5058361101      -12.2064137283       -2.6797258235  CLST      69              1.0000000000
       345        69  DCM       CL2            -3.9910735530      -11.8679644364       -1.1778157465  CLST      69              1.0000000000
       346        70  DCM       C              -9.8719100618        1.9409225455       -6.6877908421  CLST      70              1.0000000000
       347        70  DCM       H1            -10.0141431703        2.9109885398       -7.2091764552  CLST      70              1.0000000000
       348        70  DCM       H2             -8.7926365400        1.7097338954       -6.5631930872  CLST      70              1.0000000000
       349        70  DCM       CL1           -10.6347354976        2.0327437278       -5.0748130469  CLST      70              1.0000000000
       350        70  DCM       CL2           -10.6394786704        0.6434377089       -7.6480631822  CLST      70              1.0000000000
       351        71  DCM       C              -0.4070817466       -0.2311494538       -3.6414180964  CLST      71              1.0000000000
       352        71  DCM       H1             -0.0684527734        0.2194641278       -4.5857344330  CLST      71              1.0000000000
       353        71  DCM       H2              0.3696192260       -0.1297455679       -2.8394695192  CLST      71              1.0000000000
       354        71  DCM       CL1            -1.9006839587        0.5887856660       -3.1044322541  CLST      71              1.0000000000
       355        71  DCM       CL2            -0.7281368354       -1.9672130875       -3.9067660202  CLST      71              1.0000000000
       356        72  DCM       C              13.8200377312        3.4810934260        8.5832327347  CLST      72              1.0000000000
       357        72  DCM       H1             12.9615243519        2.8750881222        8.2258342710  CLST      72              1.0000000000
       358        72  DCM       H2             14.4914261887        2.8788937399        9.2307341378  CLST      72              1.0000000000
       359        72  DCM       CL1            14.7424031141        4.0684474063        7.1691087924  CLST      72              1.0000000000
       360        72  DCM       CL2            13.1998681206        4.8720500909        9.5196047676  CLST      72              1.0000000000
       361        73  DCM       C              -4.4910782730        0.4045418009        5.6012584462  CLST      73              1.0000000000
       362        73  DCM       H1             -4.2821334419       -0.4743699460        4.9553172617  CLST      73              1.0000000000
       363        73  DCM       H2             -4.9906972005        1.2080318832        5.0220129772  CLST      73              1.0000000000
       364        73  DCM       CL1            -2.9481490996        1.0304687339        6.2490417683  CLST      73              1.0000000000
       365        73  DCM       CL2            -5.5562363371       -0.0978720241        6.9482621834  CLST      73              1.0000000000
       366        74  DCM       C               4.1358809551        1.5568538620      -10.2309402994  CLST      74              1.0000000000
       367        74  DCM       H1              4.8315476259        2.1869800864      -10.8220291820  CLST      74              1.0000000000
       368        74  DCM       H2              4.6505087114        1.1158931458       -9.3519414250  CLST      74              1.0000000000
       369        74  DCM       CL1             2.7757088989        2.5635652120       -9.6582341808  CLST      74              1.0000000000
       370        74  DCM       CL2             3.5207334509        0.2362213044      -11.2664802625  CLST      74              1.0000000000
       371        75  DCM       C              -8.6755370792        5.8468556119       -4.4834386203  CLST      75              1.0000000000
       372        75  DCM       H1             -9.1659979029        6.4849157195       -5.2487616857  CLST      75              1.0000000000
       373        75  DCM       H2             -7.9662159325        6.4377048229       -3.8659865885  CLST      75              1.0000000000
       374        75  DCM       CL1            -9.9318682047        5.1432372776       -3.4233785671  CLST      75              1.0000000000
       375        75  DCM       CL2            -7.7763447416        4.5404644661       -5.3072584863  CLST      75              1.0000000000
       376        76  DCM       C               7.0093378270       -1.9661803990       -8.9611485461  CLST      76              1.0000000000
       377        76  DCM       H1              6.6696441705       -3.0234210112       -8.9068684824  CLST      76              1.0000000000
       378        76  DCM       H2              8.0458036770       -1.8552597309       -8.5907676540  CLST      76              1.0000000000
       379        76  DCM       CL1             5.9276104849       -0.9732347143       -7.9503657575  CLST      76              1.0000000000
       380        76  DCM       CL2             6.9285805091       -1.4146093742      -10.6591684906  CLST      76              1.0000000000
       381        77  DCM       C               1.0672017267        7.3302135264       -3.3139045487  CLST      77              1.0000000000
       382        77  DCM       H1              0.7816944959        6.6898985770       -2.4523110491  CLST      77              1.0000000000
       383        77  DCM       H2              1.0243675725        6.7621743217       -4.2671248351  CLST      77              1.0000000000
       384        77  DCM       CL1            -0.0640553362        8.7087439027       -3.4161042635  CLST      77              1.0000000000
       385        77  DCM       CL2             2.7335390965        7.9304300205       -3.0676511196  CLST      77              1.0000000000
       386        78  DCM       C               3.7684940393        5.4834017941       -5.6945935738  CLST      78              1.0000000000
       387        78  DCM       H1              4.7818053478        5.0680670925       -5.8742727565  CLST      78              1.0000000000
       388        78  DCM       H2              3.8303637464        6.5257225727       -5.3217120257  CLST      78              1.0000000000
       389        78  DCM       CL1             2.9266047923        4.4775059676       -4.4782988843  CLST      78              1.0000000000
       390        78  DCM       CL2             2.8535278418        5.4708775746       -7.2300914031  CLST      78              1.0000000000
       391        79  DCM       C              -5.1730511920      -10.3249242198        2.7332103670  CLST      79              1.0000000000
       392        79  DCM       H1             -4.7475978570      -10.2007959187        3.7516425063  CLST      79              1.0000000000
       393        79  DCM       H2             -5.2497666711      -11.3988940093        2.4605558638  CLST      79              1.0000000000
       394        79  DCM       CL1            -6.8014528439       -9.5908160285        2.6847311237  CLST      79              1.0000000000
       395        79  DCM       CL2            -4.1108695430       -9.5030123368        1.5569174153  CLST      79              1.0000000000
       396        80  DCM       C               9.8047827511       -4.2708433701       -7.9886632584  CLST      80              1.0000000000
       397        80  DCM       H1             10.4472185425       -5.1731075789       -7.8992283560  CLST      80              1.0000000000
       398        80  DCM       H2              9.0126678548       -4.4184492585       -8.7524700212  CLST      80              1.0000000000
       399        80  DCM       CL1             9.0346365766       -3.9486706686       -6.4093270062  CLST      80              1.0000000000
       400        80  DCM       CL2            10.8204887338       -2.8777237589       -8.4613719777  CLST      80              1.0000000000
       401        81  DCM       C              -1.5193249209       -8.6316292349       -3.3086836871  CLST      81              1.0000000000
       402        81  DCM       H1             -1.2948418980       -8.6485340291       -2.2208259352  CLST      81              1.0000000000
       403        81  DCM       H2             -2.2826118141       -9.3958032357       -3.5677018201  CLST      81              1.0000000000
       404        81  DCM       CL1            -2.1409498233       -7.0166942940       -3.7580867049  CLST      81              1.0000000000
       405        81  DCM       CL2            -0.0170230806       -8.9752931502       -4.2152351257  CLST      81              1.0000000000
       406        82  DCM       C              12.7911576786       -1.2126725463       -5.4399110848  CLST      82              1.0000000000
       407        82  DCM       H1             12.2148609883       -0.8894776226       -6.3333267883  CLST      82              1.0000000000
       408        82  DCM       H2             13.8814756712       -1.2198060426       -5.6505290152  CLST      82              1.0000000000
       409        82  DCM       CL1            12.4683925506       -0.0834463848       -4.0919533648  CLST      82              1.0000000000
       410        82  DCM       CL2            12.2779492423       -2.8624069723       -4.9828965493  CLST      82              1.0000000000
       411        83  DCM       C              -9.8267681567        4.5556930525        3.4820104299  CLST      83              1.0000000000
       412        83  DCM       H1             -9.8496168042        3.4529367140        3.3562381630  CLST      83              1.0000000000
       413        83  DCM       H2             -9.9485412907        5.0662996029        2.5037838549  CLST      83              1.0000000000
       414        83  DCM       CL1            -8.2625660156        5.0331214977        4.2030906971  CLST      83              1.0000000000
       415        83  DCM       CL2           -11.1570190546        5.0537908263        4.5658436381  CLST      83              1.0000000000
       416        84  DCM       C              10.4203307621       -2.4950768030       -1.5570278486  CLST      84              1.0000000000
       417        84  DCM       H1             11.3462059472       -2.1601979563       -2.0713599656  CLST      84              1.0000000000
       418        84  DCM       H2             10.6552404828       -2.9975030230       -0.5951739112  CLST      84              1.0000000000
       419        84  DCM       CL1             9.3898554663       -1.0713119420       -1.2342971306  CLST      84              1.0000000000
       420        84  DCM       CL2             9.5537105192       -3.6423411258       -2.6169574311  CLST      84              1.0000000000
       421        85  DCM       C             -13.7539826107       -2.8118941582       -1.8318423352  CLST      85              1.0000000000
       422        85  DCM       H1            -13.8626281186       -3.0472344771       -0.7513369727  CLST      85              1.0000000000
       423        85  DCM       H2            -14.7356526971       -2.8411114494       -2.3494829623  CLST      85              1.0000000000
       424        85  DCM       CL1           -13.0585635000       -1.1760212679       -2.0012773568  CLST      85              1.0000000000
       425        85  DCM       CL2           -12.6626792280       -4.0109032550       -2.5839794953  CLST      85              1.0000000000
       426        86  DCM       C               7.8605231354        6.3393655932        4.3742339809  CLST      86              1.0000000000
       427        86  DCM       H1              8.5988323898        6.6288601363        3.5983762186  CLST      86              1.0000000000
       428        86  DCM       H2              6.8346561630        6.6558985970        4.0901782607  CLST      86              1.0000000000
       429        86  DCM       CL1             7.8846554373        4.5624277952        4.5696782367  CLST      86              1.0000000000
       430        86  DCM       CL2             8.3049552892        7.1251522356        5.9167773177  CLST      86              1.0000000000
       431        87  DCM       C              10.2210808976        2.4437645498       -1.5101534293  CLST      87              1.0000000000
       432        87  DCM       H1              9.8473059406        1.6709681343       -2.2139914353  CLST      87              1.0000000000
       433        87  DCM       H2             10.0757072899        2.1279603488       -0.4551609630  CLST      87              1.0000000000
       434        87  DCM       CL1            11.9635132932        2.7043401345       -1.8087163568  CLST      87              1.0000000000
       435        87  DCM       CL2             9.3258151058        3.9638146683       -1.7952708318  CLST      87              1.0000000000
       436        88  DCM       C               7.9021364338       -5.1414902399        0.7920977645  CLST      88              1.0000000000
       437        88  DCM       H1              7.4397321519       -5.4705090076       -0.1620389372  CLST      88              1.0000000000
       438        88  DCM       H2              7.4495482397       -5.6655500913        1.6583191061  CLST      88              1.0000000000
       439        88  DCM       CL1             9.6509864842       -5.5066824872        0.7362290222  CLST      88              1.0000000000
       440        88  DCM       CL2             7.6552329863       -3.3816083802        0.9849990863  CLST      88              1.0000000000
       441        89  DCM       C              -5.4034865010       -6.5445273357        6.6531491222  CLST      89              1.0000000000
       442        89  DCM       H1             -5.3855956069       -5.8369423525        5.8011989656  CLST      89              1.0000000000
       443        89  DCM       H2             -6.2245041088       -6.2934807830        7.3565334137  CLST      89              1.0000000000
       444        89  DCM       CL1            -5.6631507974       -8.2025758900        6.0372996046  CLST      89              1.0000000000
       445        89  DCM       CL2            -3.8413220091       -6.4569091847        7.5195869116  CLST      89              1.0000000000
       446        90  DCM       C             -13.9950632602        2.7834560379        1.1559243115  CLST      90              1.0000000000
       447        90  DCM       H1            -15.0336828837        3.1481780643        1.3025298104  CLST      90              1.0000000000
       448        90  DCM       H2            -13.4403119181        3.4340422648        0.4468517757  CLST      90              1.0000000000
       449        90  DCM       CL1           -14.0484110640        1.1216300679        0.5019887300  CLST      90              1.0000000000
       450        90  DCM       CL2           -13.1505902508        2.7809966027        2.7297907635  CLST      90              1.0000000000
       451        91  DCM       C              -4.9815770059       -6.2889321898        2.8284898376  CLST      91              1.0000000000
       452        91  DCM       H1             -4.7648976289       -7.2016689107        3.4188672225  CLST      91              1.0000000000
       453        91  DCM       H2             -4.7250991699       -6.4339805198        1.7598470063  CLST      91              1.0000000000
       454        91  DCM       CL1            -4.0084467807       -4.9379022273        3.4679355903  CLST      91              1.0000000000
       455        91  DCM       CL2            -6.7208999513       -5.9067852277        2.9697715779  CLST      91              1.0000000000
       456        92  DCM       C             -11.3325623721        7.5979666081        0.2615869271  CLST      92              1.0000000000
       457        92  DCM       H1            -10.4774377926        7.9664549860       -0.3431358706  CLST      92              1.0000000000
       458        92  DCM       H2            -12.2718286205        8.1231447706       -0.0119461315  CLST      92              1.0000000000
       459        92  DCM       CL1           -11.5400752498        5.8458880643       -0.0272355236  CLST      92              1.0000000000
       460        92  DCM       CL2           -10.9873692243        7.8910492598        1.9907835677  CLST      92              1.0000000000
