* PRE_MLPOT:MONOMER_REPACK
*  DATE:     6/28/26      1:59:35      CREATED BY USER: boittier
*
       490  EXT
         1         1  DCM       C               0.7200295489       -3.2010155932       -1.4940535138  CLST      1               1.0000000000
         2         1  DCM       H1             -0.2657439320       -3.7068154554       -1.5685072321  CLST      1               1.0000000000
         3         1  DCM       H2              0.7364130325       -2.2727030046       -2.1007335949  CLST      1               1.0000000000
         4         1  DCM       CL1             1.0426126894       -2.7863204800        0.2146924019  CLST      1               1.0000000000
         5         1  DCM       CL2             1.9874668425       -4.3032765538       -2.0999557419  CLST      1               1.0000000000
         6         2  DCM       C               1.6892703579        0.0916775867        1.4753741064  CLST      2               1.0000000000
         7         2  DCM       H1              2.5226189321        0.8187058645        1.3996303680  CLST      2               1.0000000000
         8         2  DCM       H2              0.7141907910        0.5738392267        1.2539497086  CLST      2               1.0000000000
         9         2  DCM       CL1             1.9630190959       -1.2338055826        0.3115160487  CLST      2               1.0000000000
        10         2  DCM       CL2             1.6377760357       -0.5586010480        3.1343818772  CLST      2               1.0000000000
        11         3  DCM       C              -1.6781677426        0.3632936851        1.4254433912  CLST      3               1.0000000000
        12         3  DCM       H1             -2.7893524455        0.3679203538        1.4295589998  CLST      3               1.0000000000
        13         3  DCM       H2             -1.2752787095        1.1583785087        2.0874140242  CLST      3               1.0000000000
        14         3  DCM       CL1            -1.1042322470       -1.2286685611        1.9989877943  CLST      3               1.0000000000
        15         3  DCM       CL2            -1.1076879428        0.6434993836       -0.2440434026  CLST      3               1.0000000000
        16         4  DCM       C              -3.3524418270       -2.1207658265       -1.5437435529  CLST      4               1.0000000000
        17         4  DCM       H1             -2.7453501156       -1.7377973897       -0.6978797368  CLST      4               1.0000000000
        18         4  DCM       H2             -3.7323487441       -1.2878420651       -2.1718793573  CLST      4               1.0000000000
        19         4  DCM       CL1            -2.3496568225       -3.1968290683       -2.5596091428  CLST      4               1.0000000000
        20         4  DCM       CL2            -4.7421942596       -3.0278339774       -0.8883374673  CLST      4               1.0000000000
        21         5  DCM       C              -2.1420820587       -1.3374297839        1.4936185775  CLST      5               1.0000000000
        22         5  DCM       H1             -1.7609402380       -0.2989781262        1.5969937354  CLST      5               1.0000000000
        23         5  DCM       H2             -3.2493919957       -1.3640127980        1.5665031714  CLST      5               1.0000000000
        24         5  DCM       CL1            -1.6474917548       -1.9818379620       -0.0973901637  CLST      5               1.0000000000
        25         5  DCM       CL2            -1.4470653953       -2.3466205210        2.7926887769  CLST      5               1.0000000000
        26         6  DCM       C               3.3922804729       -0.6423014188        0.4423242768  CLST      6               1.0000000000
        27         6  DCM       H1              3.6616303808        0.2744463256       -0.1207797146  CLST      6               1.0000000000
        28         6  DCM       H2              3.1669785022       -1.4819041071       -0.2449985657  CLST      6               1.0000000000
        29         6  DCM       CL1             4.7643125642       -1.0940127858        1.4913295440  CLST      6               1.0000000000
        30         6  DCM       CL2             1.9470536812       -0.3084325456        1.4345060568  CLST      6               1.0000000000
        31         7  DCM       C               0.3853070288       -1.2188582027       -2.0513248243  CLST      7               1.0000000000
        32         7  DCM       H1              0.6413811406       -1.8662451927       -2.9158548648  CLST      7               1.0000000000
        33         7  DCM       H2              1.2994466871       -0.8564047888       -1.5368717381  CLST      7               1.0000000000
        34         7  DCM       CL1            -0.5402946948        0.1909746328       -2.6376424766  CLST      7               1.0000000000
        35         7  DCM       CL2            -0.5956137302       -2.1618281777       -0.8956376434  CLST      7               1.0000000000
        36         8  DCM       C               2.2829495867       -0.0943339021       -1.0873311618  CLST      8               1.0000000000
        37         8  DCM       H1              3.0603198362       -0.0382019207       -0.2967813837  CLST      8               1.0000000000
        38         8  DCM       H2              2.4277532798        0.7032550440       -1.8448110384  CLST      8               1.0000000000
        39         8  DCM       CL1             2.3894350522       -1.6878481198       -1.8887133382  CLST      8               1.0000000000
        40         8  DCM       CL2             0.6755779298        0.0972414777       -0.3323417302  CLST      8               1.0000000000
        41         9  DCM       C               2.0081911391       -1.4350676855        0.5441168505  CLST      9               1.0000000000
        42         9  DCM       H1              1.6427321760       -0.4637985280        0.9408056804  CLST      9               1.0000000000
        43         9  DCM       H2              3.0762242438       -1.3694218734        0.2476842941  CLST      9               1.0000000000
        44         9  DCM       CL1             1.8344846277       -2.6867239260        1.8091345936  CLST      9               1.0000000000
        45         9  DCM       CL2             1.0318827406       -1.8736894826       -0.8874416671  CLST      9               1.0000000000
        46        10  DCM       C               0.9717375893        0.8358280413       -2.0505171709  CLST      10              1.0000000000
        47        10  DCM       H1              1.4005321692       -0.1802612867       -2.1696983113  CLST      10              1.0000000000
        48        10  DCM       H2              1.1072059322        1.2112252951       -1.0142652849  CLST      10              1.0000000000
        49        10  DCM       CL1             1.7905756629        1.9387772815       -3.1920317033  CLST      10              1.0000000000
        50        10  DCM       CL2            -0.7717847430        0.7674015055       -2.4232931397  CLST      10              1.0000000000
        51        11  DCM       C               2.1582834838       -2.7925892609        2.4724031344  CLST      11              1.0000000000
        52        11  DCM       H1              2.4722621181       -1.7313686092        2.3831220417  CLST      11              1.0000000000
        53        11  DCM       H2              2.9955060420       -3.4769301029        2.2252511258  CLST      11              1.0000000000
        54        11  DCM       CL1             1.6341164831       -3.1061479832        4.1517509140  CLST      11              1.0000000000
        55        11  DCM       CL2             0.8019111495       -3.0956895058        1.3488676858  CLST      11              1.0000000000
        56        12  DCM       C              -2.1176060287       -0.5460865083       -0.3034414091  CLST      12              1.0000000000
        57        12  DCM       H1             -3.0234824488        0.0864128260       -0.4213039894  CLST      12              1.0000000000
        58        12  DCM       H2             -1.7149134641       -0.8493763824       -1.2923688747  CLST      12              1.0000000000
        59        12  DCM       CL1            -0.8665040571        0.3837669388        0.5692704745  CLST      12              1.0000000000
        60        12  DCM       CL2            -2.5437125187       -2.0135833484        0.6234479968  CLST      12              1.0000000000
        61        13  DCM       C              -1.3168217055       -1.5055131778        1.5172270735  CLST      13              1.0000000000
        62        13  DCM       H1             -1.3973414629       -1.7437090844        0.4354560609  CLST      13              1.0000000000
        63        13  DCM       H2             -0.4015557655       -0.9133417592        1.7282080330  CLST      13              1.0000000000
        64        13  DCM       CL1            -2.7521490402       -0.5648137850        2.0198325499  CLST      13              1.0000000000
        65        13  DCM       CL2            -1.2441263742       -3.0319426234        2.4416508469  CLST      13              1.0000000000
        66        14  DCM       C               0.6251858214        3.0088440756       -0.9237984554  CLST      14              1.0000000000
        67        14  DCM       H1              1.4043321730        3.1998735867       -0.1576882989  CLST      14              1.0000000000
        68        14  DCM       H2              1.0553380122        3.0416445556       -1.9470310860  CLST      14              1.0000000000
        69        14  DCM       CL1            -0.0775513419        1.3898037411       -0.6482719982  CLST      14              1.0000000000
        70        14  DCM       CL2            -0.6490456910        4.2562346296       -0.7880019528  CLST      14              1.0000000000
        71        15  DCM       C               0.2602066493        1.6957574886        1.8326470153  CLST      15              1.0000000000
        72        15  DCM       H1              1.0513332961        2.2193198558        1.2563319944  CLST      15              1.0000000000
        73        15  DCM       H2              0.0588342255        2.2142490577        2.7933397799  CLST      15              1.0000000000
        74        15  DCM       CL1            -1.2374152944        1.6675484746        0.8576414886  CLST      15              1.0000000000
        75        15  DCM       CL2             0.7988278574        0.0251520325        2.1719722083  CLST      15              1.0000000000
        76        16  DCM       C              -1.0243728520       -0.3375093655        0.1734543460  CLST      16              1.0000000000
        77        16  DCM       H1             -0.4287269300       -1.0986704390       -0.3748681790  CLST      16              1.0000000000
        78        16  DCM       H2             -1.6789018175        0.2315973622       -0.5185176724  CLST      16              1.0000000000
        79        16  DCM       CL1            -2.0420179598       -1.1643234636        1.3882157058  CLST      16              1.0000000000
        80        16  DCM       CL2             0.0892023747        0.8000378843        0.9873288103  CLST      16              1.0000000000
        81        17  DCM       C              -1.1014925711       -0.1540564933        2.0721290259  CLST      17              1.0000000000
        82        17  DCM       H1             -0.3425716598        0.6559696336        2.0647162507  CLST      17              1.0000000000
        83        17  DCM       H2             -0.6703620593       -1.1112833893        1.7115627588  CLST      17              1.0000000000
        84        17  DCM       CL1            -1.6873651079       -0.3772833630        3.7448715064  CLST      17              1.0000000000
        85        17  DCM       CL2            -2.4536954418        0.3120079973        1.0034863089  CLST      17              1.0000000000
        86        18  DCM       C               0.0735252183       -2.1087769921        2.5321294128  CLST      18              1.0000000000
        87        18  DCM       H1             -1.0094871107       -2.3531558755        2.5547774320  CLST      18              1.0000000000
        88        18  DCM       H2              0.3694861179       -1.5446336613        3.4414192763  CLST      18              1.0000000000
        89        18  DCM       CL1             1.0050868230       -3.6324828679        2.4523753912  CLST      18              1.0000000000
        90        18  DCM       CL2             0.4172632286       -1.1093339581        1.0899925628  CLST      18              1.0000000000
        91        19  DCM       C               2.7951143191        2.0142368372        2.5367111568  CLST      19              1.0000000000
        92        19  DCM       H1              3.8981425850        2.0861745391        2.6324722388  CLST      19              1.0000000000
        93        19  DCM       H2              2.2975160595        2.8703762834        3.0398227900  CLST      19              1.0000000000
        94        19  DCM       CL1             2.3561979909        2.0194555772        0.8040913019  CLST      19              1.0000000000
        95        19  DCM       CL2             2.2420940523        0.4929355864        3.2938167422  CLST      19              1.0000000000
        96        20  DCM       C               2.5551589864        1.3131078173        0.2036469033  CLST      20              1.0000000000
        97        20  DCM       H1              2.4950830053        0.2191941149        0.3871444042  CLST      20              1.0000000000
        98        20  DCM       H2              3.1634187840        1.5324496155       -0.6988347881  CLST      20              1.0000000000
        99        20  DCM       CL1             0.9034801919        1.9546163791       -0.0362531080  CLST      20              1.0000000000
       100        20  DCM       CL2             3.3126909889        2.0991822385        1.6196983774  CLST      20              1.0000000000
       101        21  DCM       C              -2.0136337983        2.0336272234       -2.1083979560  CLST      21              1.0000000000
       102        21  DCM       H1             -1.1593832122        1.3678462628       -2.3577140929  CLST      21              1.0000000000
       103        21  DCM       H2             -2.7731554407        2.0342522280       -2.9180838612  CLST      21              1.0000000000
       104        21  DCM       CL1            -2.7770457565        1.4541282356       -0.6000363373  CLST      21              1.0000000000
       105        21  DCM       CL2            -1.4057210912        3.6996436288       -1.8811305299  CLST      21              1.0000000000
       106        22  DCM       C              -2.8997891565        0.0220547483       -1.0732540601  CLST      22              1.0000000000
       107        22  DCM       H1             -2.2675096181        0.6188905136       -1.7651682067  CLST      22              1.0000000000
       108        22  DCM       H2             -3.1980405679       -0.9417890458       -1.5355308367  CLST      22              1.0000000000
       109        22  DCM       CL1            -4.3700294943        0.9585391441       -0.6798971321  CLST      22              1.0000000000
       110        22  DCM       CL2            -1.9760596634       -0.3157998509        0.4191179812  CLST      22              1.0000000000
       111        23  DCM       C              -2.6976244341       -1.0619706059        2.3655088691  CLST      23              1.0000000000
       112        23  DCM       H1             -1.6385154230       -1.3603989727        2.5077638185  CLST      23              1.0000000000
       113        23  DCM       H2             -2.7780782629        0.0182142219        2.1208318252  CLST      23              1.0000000000
       114        23  DCM       CL1            -3.3956950956       -2.0110394656        1.0228284053  CLST      23              1.0000000000
       115        23  DCM       CL2            -3.6075929372       -1.3836955795        3.8695478248  CLST      23              1.0000000000
       116        24  DCM       C               0.9518364283        0.1347570633       -3.3808950639  CLST      24              1.0000000000
       117        24  DCM       H1              1.0544952229        0.7855976001       -2.4872270028  CLST      24              1.0000000000
       118        24  DCM       H2              0.4305237106       -0.8079496655       -3.1195589872  CLST      24              1.0000000000
       119        24  DCM       CL1             2.5767157693       -0.2503826713       -4.0149401352  CLST      24              1.0000000000
       120        24  DCM       CL2             0.0118436433        1.0044838404       -4.6250342382  CLST      24              1.0000000000
       121        25  DCM       C               2.3931255450        2.6248038626       -0.3707187835  CLST      25              1.0000000000
       122        25  DCM       H1              1.4511659323        2.5804380971       -0.9585071718  CLST      25              1.0000000000
       123        25  DCM       H2              2.2133180560        2.3682301143        0.6945101289  CLST      25              1.0000000000
       124        25  DCM       CL1             3.5617277117        1.4593713392       -1.0576691349  CLST      25              1.0000000000
       125        25  DCM       CL2             3.0585868626        4.2818154871       -0.4644452121  CLST      25              1.0000000000
       126        26  DCM       C              -1.7261266663        1.9396813917        1.9211107377  CLST      26              1.0000000000
       127        26  DCM       H1             -1.7680338873        2.7792045549        1.1949238938  CLST      26              1.0000000000
       128        26  DCM       H2             -1.0465021003        1.1363702157        1.5675619352  CLST      26              1.0000000000
       129        26  DCM       CL1            -1.1298548523        2.5566265877        3.4883361050  CLST      26              1.0000000000
       130        26  DCM       CL2            -3.3650686635        1.2589171930        2.1205248148  CLST      26              1.0000000000
       131        27  DCM       C              -1.3971048881        0.9338824960       -0.2586822457  CLST      27              1.0000000000
       132        27  DCM       H1             -1.9772793973        1.7446671280        0.2304335162  CLST      27              1.0000000000
       133        27  DCM       H2             -0.3049263903        1.0981333583       -0.1416715082  CLST      27              1.0000000000
       134        27  DCM       CL1            -1.8341188866       -0.6294107146        0.4899003853  CLST      27              1.0000000000
       135        27  DCM       CL2            -1.7971547936        0.9029039246       -1.9999249016  CLST      27              1.0000000000
       136        28  DCM       C              -2.5227149215        2.5263974009       -1.0539083591  CLST      28              1.0000000000
       137        28  DCM       H1             -3.4266711884        2.6419702486       -1.6883950665  CLST      28              1.0000000000
       138        28  DCM       H2             -2.6039623164        1.6298177315       -0.4046975626  CLST      28              1.0000000000
       139        28  DCM       CL1            -1.0865700662        2.3572255171       -2.1037114373  CLST      28              1.0000000000
       140        28  DCM       CL2            -2.3502582616        3.9741858032       -0.0229577702  CLST      28              1.0000000000
       141        29  DCM       C              -1.7570889931        0.2955568005       -3.0287742041  CLST      29              1.0000000000
       142        29  DCM       H1             -2.7107820933        0.6347821023       -2.5769378805  CLST      29              1.0000000000
       143        29  DCM       H2             -1.9137150887       -0.0774235160       -4.0630330211  CLST      29              1.0000000000
       144        29  DCM       CL1            -1.0741190087       -1.0247821109       -2.0374925069  CLST      29              1.0000000000
       145        29  DCM       CL2            -0.6206191178        1.6699870630       -3.0793830366  CLST      29              1.0000000000
       146        30  DCM       C              -1.8827844071        1.2506589039        2.1413933775  CLST      30              1.0000000000
       147        30  DCM       H1             -2.3488800218        0.2541718232        2.2905828183  CLST      30              1.0000000000
       148        30  DCM       H2             -2.4836730077        2.0497958426        2.6268347455  CLST      30              1.0000000000
       149        30  DCM       CL1            -0.2431316375        1.2407128914        2.8498726364  CLST      30              1.0000000000
       150        30  DCM       CL2            -1.7783321101        1.5864638883        0.3914617329  CLST      30              1.0000000000
       151        31  DCM       C              -2.7115801764        2.5218201857       -2.5770780442  CLST      31              1.0000000000
       152        31  DCM       H1             -3.7368257985        2.9312477130       -2.6900235815  CLST      31              1.0000000000
       153        31  DCM       H2             -2.7398437631        1.4255708643       -2.4062051442  CLST      31              1.0000000000
       154        31  DCM       CL1            -1.7826094587        2.8632605866       -4.0600667584  CLST      31              1.0000000000
       155        31  DCM       CL2            -1.9135836762        3.3054088381       -1.1885617786  CLST      31              1.0000000000
       156        32  DCM       C               2.3032401553        2.1507301400       -1.2747128168  CLST      32              1.0000000000
       157        32  DCM       H1              3.3272990607        2.4560313773       -0.9765525063  CLST      32              1.0000000000
       158        32  DCM       H2              1.9745394678        2.7019618267       -2.1801705508  CLST      32              1.0000000000
       159        32  DCM       CL1             2.2953567761        0.4021988079       -1.6256149994  CLST      32              1.0000000000
       160        32  DCM       CL2             1.1820496322        2.4986612414        0.0683560636  CLST      32              1.0000000000
       161        33  DCM       C              -0.5828932008        3.6264273963       -1.6736793412  CLST      33              1.0000000000
       162        33  DCM       H1             -1.3098450695        4.4348562118       -1.8965160139  CLST      33              1.0000000000
       163        33  DCM       H2             -0.9738534920        2.6408105632       -1.9961057395  CLST      33              1.0000000000
       164        33  DCM       CL1             0.9398659651        3.9589875836       -2.5474584728  CLST      33              1.0000000000
       165        33  DCM       CL2            -0.2799739493        3.5734950134        0.0868453074  CLST      33              1.0000000000
       166        34  DCM       C               0.2025538716        3.1236315406        2.5887517503  CLST      34              1.0000000000
       167        34  DCM       H1             -0.3182285057        2.8723235438        3.5344525256  CLST      34              1.0000000000
       168        34  DCM       H2              0.6760314827        4.1254036802        2.6530058369  CLST      34              1.0000000000
       169        34  DCM       CL1             1.4650754088        1.9010080057        2.2710233697  CLST      34              1.0000000000
       170        34  DCM       CL2            -0.9847387099        3.1263260291        1.2555766850  CLST      34              1.0000000000
       171        35  DCM       C              -0.8295072614        1.2883060423       -1.4332980500  CLST      35              1.0000000000
       172        35  DCM       H1             -1.3118347422        1.9419131357       -0.6759098985  CLST      35              1.0000000000
       173        35  DCM       H2             -1.4978234686        1.1308715998       -2.3060093124  CLST      35              1.0000000000
       174        35  DCM       CL1             0.6838202727        2.0562438186       -1.9944724548  CLST      35              1.0000000000
       175        35  DCM       CL2            -0.4641524583       -0.2936602612       -0.6861590837  CLST      35              1.0000000000
       176        36  DCM       C               0.8645268946       -3.1829466903        0.3623201401  CLST      36              1.0000000000
       177        36  DCM       H1              1.5631945579       -3.8893318570        0.8563674223  CLST      36              1.0000000000
       178        36  DCM       H2              0.7248025203       -3.4470227093       -0.7065641635  CLST      36              1.0000000000
       179        36  DCM       CL1            -0.7168372533       -3.2573866129        1.1926927435  CLST      36              1.0000000000
       180        36  DCM       CL2             1.5357689139       -1.5297473881        0.4700966612  CLST      36              1.0000000000
       181        37  DCM       C              -2.4572684189        2.0418913522       -0.1737376009  CLST      37              1.0000000000
       182        37  DCM       H1             -2.1426869382        2.8326283652        0.5400976980  CLST      37              1.0000000000
       183        37  DCM       H2             -3.4064877914        2.3184920381       -0.6777112870  CLST      37              1.0000000000
       184        37  DCM       CL1            -1.1815716576        1.8242039585       -1.4064131395  CLST      37              1.0000000000
       185        37  DCM       CL2            -2.6954296184        0.5167577491        0.7233145394  CLST      37              1.0000000000
       186        38  DCM       C               0.7259672797       -0.5065504203        0.4289137613  CLST      38              1.0000000000
       187        38  DCM       H1             -0.3814609511       -0.5280944893        0.3634999965  CLST      38              1.0000000000
       188        38  DCM       H2              1.0819461273        0.4840362670        0.7737404903  CLST      38              1.0000000000
       189        38  DCM       CL1             1.2700886574       -1.7495727643        1.5898445255  CLST      38              1.0000000000
       190        38  DCM       CL2             1.4096924813       -0.8436318716       -1.1864368974  CLST      38              1.0000000000
       191        39  DCM       C               0.5271427652        0.5099292071        0.4131859575  CLST      39              1.0000000000
       192        39  DCM       H1              0.6116208967        1.6159840321        0.3587181578  CLST      39              1.0000000000
       193        39  DCM       H2             -0.5319756883        0.1939110508        0.5227520681  CLST      39              1.0000000000
       194        39  DCM       CL1             1.1999191292       -0.2001100359       -1.0840162293  CLST      39              1.0000000000
       195        39  DCM       CL2             1.4506383137       -0.0712170550        1.8277950451  CLST      39              1.0000000000
       196        40  DCM       C               0.4423870191        1.3192470744       -1.3350742401  CLST      40              1.0000000000
       197        40  DCM       H1              1.5352798537        1.4972894275       -1.4275739200  CLST      40              1.0000000000
       198        40  DCM       H2             -0.1384079120        2.1850048566       -1.7186483332  CLST      40              1.0000000000
       199        40  DCM       CL1             0.0077722129       -0.1335656352       -2.2805522367  CLST      40              1.0000000000
       200        40  DCM       CL2             0.0370049026        1.0642631997        0.3868315090  CLST      40              1.0000000000
       201        41  DCM       C               3.1292586930        0.5258475014        2.1290140070  CLST      41              1.0000000000
       202        41  DCM       H1              3.9081930392        0.4252724809        1.3439502420  CLST      41              1.0000000000
       203        41  DCM       H2              3.5404166562        1.0125062586        3.0380329479  CLST      41              1.0000000000
       204        41  DCM       CL1             1.7860350206        1.5194011191        1.4910206539  CLST      41              1.0000000000
       205        41  DCM       CL2             2.5269571757       -1.1001729234        2.5660821285  CLST      41              1.0000000000
       206        42  DCM       C               0.0577717332       -1.0773324462        2.1249604802  CLST      42              1.0000000000
       207        42  DCM       H1              0.1991698985       -0.8260366979        1.0508626532  CLST      42              1.0000000000
       208        42  DCM       H2             -0.1494216988       -0.1693224690        2.7254563526  CLST      42              1.0000000000
       209        42  DCM       CL1            -1.3216029924       -2.2046147153        2.2742735421  CLST      42              1.0000000000
       210        42  DCM       CL2             1.5508222716       -1.8482371463        2.7322602691  CLST      42              1.0000000000
       211        43  DCM       C               2.3909331368       -0.7154045886        1.2646984044  CLST      43              1.0000000000
       212        43  DCM       H1              1.9615041438        0.2900885801        1.0739230817  CLST      43              1.0000000000
       213        43  DCM       H2              3.4992582529       -0.6965721767        1.1908207722  CLST      43              1.0000000000
       214        43  DCM       CL1             1.9199973404       -1.2399498352        2.9069702264  CLST      43              1.0000000000
       215        43  DCM       CL2             1.7472874302       -1.8605702822        0.0534266344  CLST      43              1.0000000000
       216        44  DCM       C               2.7352301491        2.7289246136       -0.2356243315  CLST      44              1.0000000000
       217        44  DCM       H1              2.7656907563        2.5029176004       -1.3271784547  CLST      44              1.0000000000
       218        44  DCM       H2              3.6069815878        2.2884288823        0.2842083069  CLST      44              1.0000000000
       219        44  DCM       CL1             2.7546766172        4.5012796843       -0.0114998371  CLST      44              1.0000000000
       220        44  DCM       CL2             1.2358342866        2.0518532307        0.4612864234  CLST      44              1.0000000000
       221        45  DCM       C              -2.6284334089       -2.1237020087        2.7736777904  CLST      45              1.0000000000
       222        45  DCM       H1             -2.4250260123       -2.4896055597        1.7432277383  CLST      45              1.0000000000
       223        45  DCM       H2             -1.7085139955       -1.7181945018        3.2422730748  CLST      45              1.0000000000
       224        45  DCM       CL1            -3.8664880203       -0.8371118318        2.6990850639  CLST      45              1.0000000000
       225        45  DCM       CL2            -3.2324201514       -3.4831924308        3.7619838047  CLST      45              1.0000000000
       226        46  DCM       C               1.7866472906       -0.6698754134       -0.1885349952  CLST      46              1.0000000000
       227        46  DCM       H1              2.6052815588       -0.0521327687        0.2370243280  CLST      46              1.0000000000
       228        46  DCM       H2              1.7424276299       -0.5670367533       -1.2941139656  CLST      46              1.0000000000
       229        46  DCM       CL1             2.0764693514       -2.3849488487        0.2246622026  CLST      46              1.0000000000
       230        46  DCM       CL2             0.2282971900       -0.1386405110        0.5076352756  CLST      46              1.0000000000
       231        47  DCM       C              -2.6898891193       -2.3908447041       -1.2155479639  CLST      47              1.0000000000
       232        47  DCM       H1             -1.7604790586       -2.9100087349       -0.8999046361  CLST      47              1.0000000000
       233        47  DCM       H2             -2.4812854741       -1.6729912125       -2.0318103915  CLST      47              1.0000000000
       234        47  DCM       CL1            -3.3700108252       -1.5059365779        0.1813408461  CLST      47              1.0000000000
       235        47  DCM       CL2            -3.8597909296       -3.6058888753       -1.7992354288  CLST      47              1.0000000000
       236        48  DCM       C               1.4975519108        2.0169640438       -2.5594098425  CLST      48              1.0000000000
       237        48  DCM       H1              1.1393950967        2.2815170011       -3.5759149441  CLST      48              1.0000000000
       238        48  DCM       H2              1.8064332926        0.9520744177       -2.5081120836  CLST      48              1.0000000000
       239        48  DCM       CL1             2.8962607365        3.0503517451       -2.1500332930  CLST      48              1.0000000000
       240        48  DCM       CL2             0.1778231562        2.2968370315       -1.3897346845  CLST      48              1.0000000000
       241        49  DCM       C              -3.0814768956       -3.1415361290       -2.0489417942  CLST      49              1.0000000000
       242        49  DCM       H1             -1.9951991207       -3.2860908693       -1.8754670146  CLST      49              1.0000000000
       243        49  DCM       H2             -3.6405629864       -3.1374402277       -1.0902276170  CLST      49              1.0000000000
       244        49  DCM       CL1            -3.3371823431       -1.5857387077       -2.8914884101  CLST      49              1.0000000000
       245        49  DCM       CL2            -3.6783203721       -4.4808766984       -3.0651124334  CLST      49              1.0000000000
       246        50  DCM       C               2.4262929262       -1.0309192382       -2.7285900690  CLST      50              1.0000000000
       247        50  DCM       H1              1.9584862104       -1.8249623680       -3.3486017637  CLST      50              1.0000000000
       248        50  DCM       H2              2.8194481727       -1.4460063873       -1.7768718857  CLST      50              1.0000000000
       249        50  DCM       CL1             1.2007935000        0.2163462310       -2.3575915422  CLST      50              1.0000000000
       250        50  DCM       CL2             3.7751854763       -0.3002113982       -3.6447360865  CLST      50              1.0000000000
       251        51  DCM       C              -2.7641859064       -2.6341882814        1.2997975839  CLST      51              1.0000000000
       252        51  DCM       H1             -2.6881690426       -2.1890960218        0.2856112358  CLST      51              1.0000000000
       253        51  DCM       H2             -2.2221007791       -2.0180997847        2.0474518046  CLST      51              1.0000000000
       254        51  DCM       CL1            -4.4864479774       -2.7286805648        1.7681275834  CLST      51              1.0000000000
       255        51  DCM       CL2            -2.0497255572       -4.2713190057        1.2694641677  CLST      51              1.0000000000
       256        52  DCM       C               3.6251173980       -2.3947554438       -1.2282503177  CLST      52              1.0000000000
       257        52  DCM       H1              3.4482258691       -3.0400496768       -2.1138510139  CLST      52              1.0000000000
       258        52  DCM       H2              4.7075692948       -2.3214417373       -0.9981407471  CLST      52              1.0000000000
       259        52  DCM       CL1             2.9956938976       -0.7578884721       -1.5671277841  CLST      52              1.0000000000
       260        52  DCM       CL2             2.7740139234       -3.0975293945        0.1770738839  CLST      52              1.0000000000
       261        53  DCM       C              -0.1068104850       -0.2530567914       -0.7657812127  CLST      53              1.0000000000
       262        53  DCM       H1             -0.7526219356       -0.0192811442        0.1080848408  CLST      53              1.0000000000
       263        53  DCM       H2              0.8793105366       -0.6397249254       -0.4378655326  CLST      53              1.0000000000
       264        53  DCM       CL1            -0.9089777302       -1.4934218736       -1.7707304058  CLST      53              1.0000000000
       265        53  DCM       CL2             0.1399107866        1.2365630776       -1.7217895189  CLST      53              1.0000000000
       266        54  DCM       C              -1.7810652223        3.1797350526        0.4624144157  CLST      54              1.0000000000
       267        54  DCM       H1             -2.8570198285        2.9065832034        0.4945174087  CLST      54              1.0000000000
       268        54  DCM       H2             -1.2595237453        2.8687575791        1.3923239798  CLST      54              1.0000000000
       269        54  DCM       CL1            -1.6380025753        4.9521497921        0.2819390336  CLST      54              1.0000000000
       270        54  DCM       CL2            -1.0159019787        2.3615856015       -0.9299810553  CLST      54              1.0000000000
       271        55  DCM       C              -2.2500837151        0.6229838835        2.4846007035  CLST      55              1.0000000000
       272        55  DCM       H1             -2.2068041610        1.5820484104        1.9278878449  CLST      55              1.0000000000
       273        55  DCM       H2             -1.2296400059        0.2527292116        2.7233641785  CLST      55              1.0000000000
       274        55  DCM       CL1            -3.1463288361        0.8764280132        4.0107080683  CLST      55              1.0000000000
       275        55  DCM       CL2            -3.0921204549       -0.5951165999        1.4816381413  CLST      55              1.0000000000
       276        56  DCM       C              -0.7331887536       -1.6025062655        0.4824936328  CLST      56              1.0000000000
       277        56  DCM       H1             -0.1618943017       -2.1593689691        1.2548414495  CLST      56              1.0000000000
       278        56  DCM       H2             -1.6807114956       -1.2024384693        0.8996310656  CLST      56              1.0000000000
       279        56  DCM       CL1            -1.1148436782       -2.7087395052       -0.8679123789  CLST      56              1.0000000000
       280        56  DCM       CL2             0.2588211529       -0.2399076509       -0.1129357234  CLST      56              1.0000000000
       281        57  DCM       C              -2.2618439170        0.7605183779       -2.2598614299  CLST      57              1.0000000000
       282        57  DCM       H1             -1.4167204042        1.4446413400       -2.0445248227  CLST      57              1.0000000000
       283        57  DCM       H2             -3.2040808285        1.1387050184       -1.8114644045  CLST      57              1.0000000000
       284        57  DCM       CL1            -2.4693310273        0.6465557758       -4.0305749300  CLST      57              1.0000000000
       285        57  DCM       CL2            -1.8816317932       -0.8473980515       -1.5777293392  CLST      57              1.0000000000
       286        58  DCM       C              -1.4076706402       -3.0604331179        3.3207675883  CLST      58              1.0000000000
       287        58  DCM       H1             -0.8404844883       -3.5519902197        4.1395338814  CLST      58              1.0000000000
       288        58  DCM       H2             -0.7956883881       -2.2787199196        2.8234663378  CLST      58              1.0000000000
       289        58  DCM       CL1            -2.8831736463       -2.3105702340        3.9933088312  CLST      58              1.0000000000
       290        58  DCM       CL2            -1.8584527502       -4.2906758592        2.1126180313  CLST      58              1.0000000000
       291        59  DCM       C              -1.4132354146        1.2453288158       -2.8444541559  CLST      59              1.0000000000
       292        59  DCM       H1             -0.5356895514        0.6129702602       -3.0970954627  CLST      59              1.0000000000
       293        59  DCM       H2             -2.2974909138        0.9600517551       -3.4519364908  CLST      59              1.0000000000
       294        59  DCM       CL1            -1.8050073905        1.0350408188       -1.1127518784  CLST      59              1.0000000000
       295        59  DCM       CL2            -1.0133957409        2.9561216407       -3.1731757714  CLST      59              1.0000000000
       296        60  DCM       C               1.4307062213        3.5229769646        1.6038385558  CLST      60              1.0000000000
       297        60  DCM       H1              2.1140354008        2.6496763501        1.5826815449  CLST      60              1.0000000000
       298        60  DCM       H2              0.8795331955        3.5683572688        2.5658161960  CLST      60              1.0000000000
       299        60  DCM       CL1             2.3980747961        5.0115148457        1.4033991435  CLST      60              1.0000000000
       300        60  DCM       CL2             0.2598300820        3.3745899496        0.2627339041  CLST      60              1.0000000000
       301        61  DCM       C               2.6102086485        2.8728815821       -2.8949160616  CLST      61              1.0000000000
       302        61  DCM       H1              3.6193896892        2.6831467737       -3.3201838719  CLST      61              1.0000000000
       303        61  DCM       H2              2.0682753532        3.6382607036       -3.4849856344  CLST      61              1.0000000000
       304        61  DCM       CL1             1.6658054476        1.3597038414       -2.9233084637  CLST      61              1.0000000000
       305        61  DCM       CL2             2.7926816693        3.4373466913       -1.2102498092  CLST      61              1.0000000000
       306        62  DCM       C              -0.5601945886        2.6211703797       -2.7928694007  CLST      62              1.0000000000
       307        62  DCM       H1              0.1844949481        3.1803062905       -2.1872611501  CLST      62              1.0000000000
       308        62  DCM       H2             -0.2578122536        1.5605891566       -2.9193423158  CLST      62              1.0000000000
       309        62  DCM       CL1            -2.1406776530        2.6818595940       -1.9620084617  CLST      62              1.0000000000
       310        62  DCM       CL2            -0.6847313652        3.3811713325       -4.4050494711  CLST      62              1.0000000000
       311        63  DCM       C              -0.8378097885        2.4168313449        0.9872100037  CLST      63              1.0000000000
       312        63  DCM       H1             -1.1970484149        3.4268693077        1.2766202583  CLST      63              1.0000000000
       313        63  DCM       H2             -0.2730780610        1.9397297269        1.8156270718  CLST      63              1.0000000000
       314        63  DCM       CL1            -2.2500961562        1.4038965888        0.5766786283  CLST      63              1.0000000000
       315        63  DCM       CL2             0.2278249905        2.5766407934       -0.4360397477  CLST      63              1.0000000000
       316        64  DCM       C               1.2733465833       -0.1029122047        0.7417418638  CLST      64              1.0000000000
       317        64  DCM       H1              1.5900000165        0.2215009286       -0.2716789954  CLST      64              1.0000000000
       318        64  DCM       H2              1.6866323262       -1.1052355961        0.9848973350  CLST      64              1.0000000000
       319        64  DCM       CL1             1.8704943308        1.0795224678        1.9408955272  CLST      64              1.0000000000
       320        64  DCM       CL2            -0.5121469259       -0.1788385089        0.7977632425  CLST      64              1.0000000000
       321        65  DCM       C               1.5109644090        1.7013954355        0.7479996740  CLST      65              1.0000000000
       322        65  DCM       H1              1.3682896281        0.8963050852       -0.0044883310  CLST      65              1.0000000000
       323        65  DCM       H2              2.5078036102        1.6262059924        1.2300737311  CLST      65              1.0000000000
       324        65  DCM       CL1             1.3792159390        3.2863195233       -0.0685404357  CLST      65              1.0000000000
       325        65  DCM       CL2             0.2461428910        1.5551848030        2.0036624975  CLST      65              1.0000000000
       326        66  DCM       C               2.4127505602        2.8556378132        2.2388164092  CLST      66              1.0000000000
       327        66  DCM       H1              3.2062179035        3.4198860224        1.7054581322  CLST      66              1.0000000000
       328        66  DCM       H2              2.5899264392        1.7607631235        2.1777744086  CLST      66              1.0000000000
       329        66  DCM       CL1             2.4052773438        3.3467453583        3.9560954366  CLST      66              1.0000000000
       330        66  DCM       CL2             0.8321993752        3.2316665109        1.4948664094  CLST      66              1.0000000000
       331        67  DCM       C               2.2236440630       -2.4774466543       -2.2804002729  CLST      67              1.0000000000
       332        67  DCM       H1              2.9896492548       -2.2745101197       -3.0598162038  CLST      67              1.0000000000
       333        67  DCM       H2              1.4974879680       -1.6422407888       -2.2055997225  CLST      67              1.0000000000
       334        67  DCM       CL1             1.3379343761       -3.9688519040       -2.7058903302  CLST      67              1.0000000000
       335        67  DCM       CL2             3.0395456231       -2.6787364961       -0.7033024409  CLST      67              1.0000000000
       336        68  DCM       C               1.1266267937        0.1445728494        2.3071739696  CLST      68              1.0000000000
       337        68  DCM       H1              1.9459849499        0.8896141900        2.2432768308  CLST      68              1.0000000000
       338        68  DCM       H2              0.5470790788        0.1121988374        1.3623377442  CLST      68              1.0000000000
       339        68  DCM       CL1             1.8286306493       -1.4667244856        2.6121429270  CLST      68              1.0000000000
       340        68  DCM       CL2             0.0342574008        0.5959457129        3.6445683548  CLST      68              1.0000000000
       341        69  DCM       C              -2.9678236534       -1.5204715290       -0.8182366476  CLST      69              1.0000000000
       342        69  DCM       H1             -2.5051580269       -0.5414961908       -0.5637335534  CLST      69              1.0000000000
       343        69  DCM       H2             -3.6760443578       -1.4168385080       -1.6657612497  CLST      69              1.0000000000
       344        69  DCM       CL1            -1.6756090491       -2.6719109665       -1.2687756359  CLST      69              1.0000000000
       345        69  DCM       CL2            -3.8549892030       -2.1342204329        0.6071118824  CLST      69              1.0000000000
       346        70  DCM       C              -0.4426625966        2.0300388852       -0.4889675346  CLST      70              1.0000000000
       347        70  DCM       H1             -0.1881955031        1.0640374997       -0.9765899474  CLST      70              1.0000000000
       348        70  DCM       H2             -0.7857449190        2.7758518092       -1.2354490521  CLST      70              1.0000000000
       349        70  DCM       CL1            -1.7479360474        1.7553278212        0.7034610287  CLST      70              1.0000000000
       350        70  DCM       CL2             1.0125718757        2.6639526240        0.3347936054  CLST      70              1.0000000000
       351        71  DCM       C              -2.8124292500        0.9882095071       -2.5345904944  CLST      71              1.0000000000
       352        71  DCM       H1             -2.8108882940        1.3798680847       -1.4987700118  CLST      71              1.0000000000
       353        71  DCM       H2             -2.9089196789       -0.1198329456       -2.5394594526  CLST      71              1.0000000000
       354        71  DCM       CL1            -4.1928538026        1.6914357211       -3.4228726589  CLST      71              1.0000000000
       355        71  DCM       CL2            -1.2828776248        1.4528366385       -3.3325647849  CLST      71              1.0000000000
       356        72  DCM       C               2.7426853368        0.7084687351        2.5911899945  CLST      72              1.0000000000
       357        72  DCM       H1              1.7404784820        0.2548752021        2.7482484182  CLST      72              1.0000000000
       358        72  DCM       H2              3.5466509979        0.0409214664        2.9648079157  CLST      72              1.0000000000
       359        72  DCM       CL1             2.9866111099        0.9889048112        0.8429186683  CLST      72              1.0000000000
       360        72  DCM       CL2             2.8203088937        2.2626231276        3.4695343585  CLST      72              1.0000000000
       361        73  DCM       C              -0.4130537011        2.8031180030        2.5262282040  CLST      73              1.0000000000
       362        73  DCM       H1              0.3171897820        2.4223850246        1.7852105256  CLST      73              1.0000000000
       363        73  DCM       H2             -1.4357457975        2.4389832420        2.2907101810  CLST      73              1.0000000000
       364        73  DCM       CL1             0.0534048580        2.2341694789        4.1547132745  CLST      73              1.0000000000
       365        73  DCM       CL2            -0.4022677943        4.5883047056        2.4929010632  CLST      73              1.0000000000
       366        74  DCM       C              -3.1863421783       -0.0951741980       -0.0290688142  CLST      74              1.0000000000
       367        74  DCM       H1             -3.4415860988        0.9088552634       -0.4296802174  CLST      74              1.0000000000
       368        74  DCM       H2             -2.7358259771       -0.0179258726        0.9847018710  CLST      74              1.0000000000
       369        74  DCM       CL1            -4.6734701842       -1.0775153271        0.0700996318  CLST      74              1.0000000000
       370        74  DCM       CL2            -2.0188224984       -0.8849815091       -1.1278363573  CLST      74              1.0000000000
       371        75  DCM       C               1.1358421744       -0.9506463434       -0.8670025574  CLST      75              1.0000000000
       372        75  DCM       H1              1.3521957527       -1.4968114442        0.0756433369  CLST      75              1.0000000000
       373        75  DCM       H2              1.5466030533        0.0799259216       -0.8311817410  CLST      75              1.0000000000
       374        75  DCM       CL1             1.8865064055       -1.8239582941       -2.2315131615  CLST      75              1.0000000000
       375        75  DCM       CL2            -0.6345270898       -0.8666264957       -1.1080319483  CLST      75              1.0000000000
       376        76  DCM       C              -0.8096483634       -1.0981276818       -1.2802088490  CLST      76              1.0000000000
       377        76  DCM       H1             -1.5518232683       -0.7058904636       -0.5547016364  CLST      76              1.0000000000
       378        76  DCM       H2             -1.2816264741       -1.3218217772       -2.2598645996  CLST      76              1.0000000000
       379        76  DCM       CL1            -0.1092955802       -2.6023677220       -0.6275704308  CLST      76              1.0000000000
       380        76  DCM       CL2             0.4723030789        0.1228795418       -1.5231360454  CLST      76              1.0000000000
       381        77  DCM       C               0.5189149201        2.1581785868        0.5941855799  CLST      77              1.0000000000
       382        77  DCM       H1              1.1944415300        3.0065569572        0.8324108631  CLST      77              1.0000000000
       383        77  DCM       H2              0.0982253607        2.2569708827       -0.4292590245  CLST      77              1.0000000000
       384        77  DCM       CL1             1.4425342444        0.6313701487        0.6976942452  CLST      77              1.0000000000
       385        77  DCM       CL2            -0.8242622804        2.1359561193        1.7728359918  CLST      77              1.0000000000
       386        78  DCM       C              -0.3618253239        0.7135576049        1.6699451560  CLST      78              1.0000000000
       387        78  DCM       H1              0.1250388764        1.5261480539        2.2496780471  CLST      78              1.0000000000
       388        78  DCM       H2             -1.1822665214        1.1123984040        1.0379936205  CLST      78              1.0000000000
       389        78  DCM       CL1             0.8576081895       -0.0657819014        0.6198325351  CLST      78              1.0000000000
       390        78  DCM       CL2            -1.0406288008       -0.4889933021        2.8047387843  CLST      78              1.0000000000
       391        79  DCM       C              -1.3761041244       -2.9079982811       -2.8534689946  CLST      79              1.0000000000
       392        79  DCM       H1             -2.0206800907       -3.7940080279       -3.0239364101  CLST      79              1.0000000000
       393        79  DCM       H2             -1.4045406371       -2.2203084771       -3.7275324538  CLST      79              1.0000000000
       394        79  DCM       CL1            -1.9587957046       -2.0330392477       -1.4095012654  CLST      79              1.0000000000
       395        79  DCM       CL2             0.3086235784       -3.4442004796       -2.5898045302  CLST      79              1.0000000000
       396        80  DCM       C              -2.9852305045        1.5209178633        1.3150234426  CLST      80              1.0000000000
       397        80  DCM       H1             -3.6453748024        2.4130238113        1.2616773151  CLST      80              1.0000000000
       398        80  DCM       H2             -3.4653074184        0.6380606927        0.8432977309  CLST      80              1.0000000000
       399        80  DCM       CL1            -1.4609465237        1.8785654677        0.4562382586  CLST      80              1.0000000000
       400        80  DCM       CL2            -2.6423169420        1.1486024721        3.0283702860  CLST      80              1.0000000000
       401        81  DCM       C               2.5128013698        1.4874592070        1.5194995253  CLST      81              1.0000000000
       402        81  DCM       H1              2.8491718578        1.4470172507        2.5764885425  CLST      81              1.0000000000
       403        81  DCM       H2              1.4641458868        1.8479380673        1.4482862451  CLST      81              1.0000000000
       404        81  DCM       CL1             3.5765802210        2.6026176117        0.6137922457  CLST      81              1.0000000000
       405        81  DCM       CL2             2.6117056970       -0.1505604628        0.8102870775  CLST      81              1.0000000000
       406        82  DCM       C               0.4716334849        0.3305423568        3.6015190606  CLST      82              1.0000000000
       407        82  DCM       H1             -0.1591611824        1.2197821294        3.3923004047  CLST      82              1.0000000000
       408        82  DCM       H2             -0.1540496655       -0.5728446913        3.7561355118  CLST      82              1.0000000000
       409        82  DCM       CL1             1.5625568014        0.0520149797        2.2141670477  CLST      82              1.0000000000
       410        82  DCM       CL2             1.4332511150        0.6334422073        5.0758440329  CLST      82              1.0000000000
       411        83  DCM       C               0.6696280668       -0.6801662936        0.0376180730  CLST      83              1.0000000000
       412        83  DCM       H1             -0.1883026475       -0.1630417097        0.5164810786  CLST      83              1.0000000000
       413        83  DCM       H2              0.4347552900       -0.9503798860       -1.0133417212  CLST      83              1.0000000000
       414        83  DCM       CL1             2.0855187499        0.4093159484        0.0598029718  CLST      83              1.0000000000
       415        83  DCM       CL2             1.0336064876       -2.1694186360        0.9558540133  CLST      83              1.0000000000
       416        84  DCM       C               0.1390579649       -0.9071227188       -2.7032019936  CLST      84              1.0000000000
       417        84  DCM       H1             -0.7957492059       -1.0142830585       -2.1146682576  CLST      84              1.0000000000
       418        84  DCM       H2              0.1794768632       -1.6530493062       -3.5245330875  CLST      84              1.0000000000
       419        84  DCM       CL1             0.1979711976        0.7344826935       -3.4080750613  CLST      84              1.0000000000
       420        84  DCM       CL2             1.5422842620       -1.1592459819       -1.6250265625  CLST      84              1.0000000000
       421        85  DCM       C               0.2501791598       -0.9345397231       -2.0451757591  CLST      85              1.0000000000
       422        85  DCM       H1             -0.1141306280       -0.4503233466       -2.9768160938  CLST      85              1.0000000000
       423        85  DCM       H2              0.3115925546       -2.0360985950       -2.1687578695  CLST      85              1.0000000000
       424        85  DCM       CL1             1.8734879631       -0.2950785672       -1.6585816384  CLST      85              1.0000000000
       425        85  DCM       CL2            -0.8826163426       -0.5560694495       -0.7147550706  CLST      85              1.0000000000
       426        86  DCM       C               2.4228717087       -0.9009182985       -1.1272552453  CLST      86              1.0000000000
       427        86  DCM       H1              1.5300140338       -0.9352037709       -0.4685404367  CLST      86              1.0000000000
       428        86  DCM       H2              2.1301666439       -0.7436201213       -2.1866104971  CLST      86              1.0000000000
       429        86  DCM       CL1             3.4716495904        0.4434245264       -0.5997947998  CLST      86              1.0000000000
       430        86  DCM       CL2             3.3059351353       -2.4470018253       -0.9912269877  CLST      86              1.0000000000
       431        87  DCM       C              -0.8300722904       -2.9785785414        0.5272190394  CLST      87              1.0000000000
       432        87  DCM       H1             -0.9933323030       -2.8462522379       -0.5635774203  CLST      87              1.0000000000
       433        87  DCM       H2             -1.3600520489       -2.1932325247        1.1060101095  CLST      87              1.0000000000
       434        87  DCM       CL1            -1.4450662676       -4.5814324352        1.0242374777  CLST      87              1.0000000000
       435        87  DCM       CL2             0.9209500420       -2.8685546038        0.8682738986  CLST      87              1.0000000000
       436        88  DCM       C               1.2166893330       -0.8696639214        2.0772073627  CLST      88              1.0000000000
       437        88  DCM       H1              2.1151732975       -0.7816640895        1.4290524642  CLST      88              1.0000000000
       438        88  DCM       H2              0.4198812255       -0.1686535103        1.7520090780  CLST      88              1.0000000000
       439        88  DCM       CL1             0.5936072684       -2.5427382505        1.9869787785  CLST      88              1.0000000000
       440        88  DCM       CL2             1.6784906579       -0.4851391712        3.7593016101  CLST      88              1.0000000000
       441        89  DCM       C               2.1932856063        0.3188529982       -3.0692976766  CLST      89              1.0000000000
       442        89  DCM       H1              2.7203024086       -0.3963797202       -2.4015262327  CLST      89              1.0000000000
       443        89  DCM       H2              2.8806485884        0.7164634534       -3.8452404305  CLST      89              1.0000000000
       444        89  DCM       CL1             0.8328895596       -0.5177711790       -3.8698677756  CLST      89              1.0000000000
       445        89  DCM       CL2             1.5664496195        1.6794540678       -2.0963201257  CLST      89              1.0000000000
       446        90  DCM       C               1.6549429277        1.0817892095        2.8713710798  CLST      90              1.0000000000
       447        90  DCM       H1              1.0540425444        1.8826938565        2.3911407606  CLST      90              1.0000000000
       448        90  DCM       H2              0.9999517061        0.3165043545        3.3371762497  CLST      90              1.0000000000
       449        90  DCM       CL1             2.6903700794        1.8081023130        4.1341915677  CLST      90              1.0000000000
       450        90  DCM       CL2             2.6719969846        0.2949164893        1.6306911751  CLST      90              1.0000000000
       451        91  DCM       C               1.2569402707       -2.4947459453        0.3301966819  CLST      91              1.0000000000
       452        91  DCM       H1              0.6997234735       -2.7038961133       -0.6065214179  CLST      91              1.0000000000
       453        91  DCM       H2              0.8194368459       -1.6249621119        0.8662931069  CLST      91              1.0000000000
       454        91  DCM       CL1             1.1738143307       -3.9334021078        1.3866316078  CLST      91              1.0000000000
       455        91  DCM       CL2             2.9608601568       -2.1291111709       -0.0696706956  CLST      91              1.0000000000
       456        92  DCM       C              -0.4969034308       -0.0907550378       -0.1107527171  CLST      92              1.0000000000
       457        92  DCM       H1             -1.5872303791       -0.2721617372       -0.1979692785  CLST      92              1.0000000000
       458        92  DCM       H2             -0.0403877725        0.0940465636       -1.1066647281  CLST      92              1.0000000000
       459        92  DCM       CL1             0.2771439596       -1.5203555280        0.6281404541  CLST      92              1.0000000000
       460        92  DCM       CL2            -0.2235119213        1.3383523198        0.9208845740  CLST      92              1.0000000000
       461        93  DCM       C               0.9263731243       -2.6692038928       -2.7988248716  CLST      93              1.0000000000
       462        93  DCM       H1              2.0054151538       -2.8208337743       -3.0093916456  CLST      93              1.0000000000
       463        93  DCM       H2              0.7281571442       -2.6586200962       -1.7053956429  CLST      93              1.0000000000
       464        93  DCM       CL1             0.4159717378       -1.1069004162       -3.4984705594  CLST      93              1.0000000000
       465        93  DCM       CL2             0.0033486368       -4.0048447294       -3.5440042786  CLST      93              1.0000000000
       466        94  DCM       C              -1.4439860056       -2.6189439443       -1.5827988127  CLST      94              1.0000000000
       467        94  DCM       H1             -0.4856783310       -3.1742735625       -1.5221135603  CLST      94              1.0000000000
       468        94  DCM       H2             -2.3077659379       -3.3164868131       -1.6264133541  CLST      94              1.0000000000
       469        94  DCM       CL1            -1.6070194259       -1.5785002544       -0.1379100847  CLST      94              1.0000000000
       470        94  DCM       CL2            -1.4365820426       -1.6062916191       -3.0558909180  CLST      94              1.0000000000
       471        95  DCM       C               2.5621934871       -2.5991029716        0.0540218014  CLST      95              1.0000000000
       472        95  DCM       H1              1.8154362421       -2.4570930354       -0.7554670387  CLST      95              1.0000000000
       473        95  DCM       H2              2.4308479111       -1.8424027693        0.8563886018  CLST      95              1.0000000000
       474        95  DCM       CL1             2.3571547117       -4.2308537246        0.7555023084  CLST      95              1.0000000000
       475        95  DCM       CL2             4.2041185122       -2.4378915009       -0.6347090594  CLST      95              1.0000000000
       476        96  DCM       C              -2.3508320841       -0.8009920545        0.0290178120  CLST      96              1.0000000000
       477        96  DCM       H1             -2.0770830521       -0.0281566597       -0.7192419763  CLST      96              1.0000000000
       478        96  DCM       H2             -2.0987068459       -1.8187518617       -0.3363380679  CLST      96              1.0000000000
       479        96  DCM       CL1            -1.4512563225       -0.4887398004        1.5419395138  CLST      96              1.0000000000
       480        96  DCM       CL2            -4.1094876009       -0.7126904875        0.3397860021  CLST      96              1.0000000000
       481        97  DCM       C               1.7151257856       -3.2245870176       -0.5609400762  CLST      97              1.0000000000
       482        97  DCM       H1              2.1299751614       -2.1955211649       -0.5260313690  CLST      97              1.0000000000
       483        97  DCM       H2              2.2631695877       -3.8974155140        0.1310771336  CLST      97              1.0000000000
       484        97  DCM       CL1            -0.0074912661       -3.1727874044       -0.0833614057  CLST      97              1.0000000000
       485        97  DCM       CL2             1.8654159438       -3.8530575608       -2.2276432649  CLST      97              1.0000000000
       486        98  DCM       C              -1.3566284442       -2.8128768660        0.7826915197  CLST      98              1.0000000000
       487        98  DCM       H1             -2.1554506302       -3.4457795968        1.2262310038  CLST      98              1.0000000000
       488        98  DCM       H2             -1.7602193720       -1.8390447756        0.4367217714  CLST      98              1.0000000000
       489        98  DCM       CL1            -0.1013845624       -2.5209526138        2.0196108394  CLST      98              1.0000000000
       490        98  DCM       CL2            -0.6439692751       -3.6754083287       -0.6105210792  CLST      98              1.0000000000
