* INITIAL
*  DATE:     6/28/26      1:57:36      CREATED BY USER: boittier
*
       475  EXT
         1         1  DCM       C              -8.4142204573        7.3343061865        3.0441501904  CLST      1               1.0000000000
         2         1  DCM       H1             -8.5067640778        7.6027760847        4.1172281155  CLST      1               1.0000000000
         3         1  DCM       H2             -8.1942963950        8.2301905688        2.4263534570  CLST      1               1.0000000000
         4         1  DCM       CL1            -9.9482585439        6.6054423683        2.4887944383  CLST      1               1.0000000000
         5         1  DCM       CL2            -7.0849291485        6.1576557633        2.8543065394  CLST      1               1.0000000000
         6         2  DCM       C              -2.2803040684       -2.6070198840        4.6312135044  CLST      2               1.0000000000
         7         2  DCM       H1             -1.9100563160       -1.8548556643        3.9037284750  CLST      2               1.0000000000
         8         2  DCM       H2             -2.5889959303       -2.1258833701        5.5827621075  CLST      2               1.0000000000
         9         2  DCM       CL1            -3.6852147695       -3.4504988091        3.9228528151  CLST      2               1.0000000000
        10         2  DCM       CL2            -0.9801465363       -3.7829346339        4.9709931268  CLST      2               1.0000000000
        11         3  DCM       C              -5.0457942715       -9.4285906777        0.0214519711  CLST      3               1.0000000000
        12         3  DCM       H1             -5.0120059715       -8.4542958580       -0.5080891728  CLST      3               1.0000000000
        13         3  DCM       H2             -5.4832724396       -9.3140918793        1.0357075094  CLST      3               1.0000000000
        14         3  DCM       CL1            -6.0539462795      -10.5632811081       -0.9213201448  CLST      3               1.0000000000
        15         3  DCM       CL2            -3.3832247707      -10.0702165935        0.1678345187  CLST      3               1.0000000000
        16         4  DCM       C               6.0108582668       11.2792965221        8.5515562466  CLST      4               1.0000000000
        17         4  DCM       H1              6.8649855796       10.9519063155        9.1817704092  CLST      4               1.0000000000
        18         4  DCM       H2              5.4779012105       12.1380960697        9.0116904145  CLST      4               1.0000000000
        19         4  DCM       CL1             4.8672051591        9.9186999847        8.3699504252  CLST      4               1.0000000000
        20         4  DCM       CL2             6.6268300488       11.7703189597        6.9477339065  CLST      4               1.0000000000
        21         5  DCM       C              -8.6264453249        6.8776138131       -0.9974076555  CLST      5               1.0000000000
        22         5  DCM       H1             -8.7871552381        6.9289900644       -2.0936218903  CLST      5               1.0000000000
        23         5  DCM       H2             -9.5914644727        6.9304402415       -0.4507461151  CLST      5               1.0000000000
        24         5  DCM       CL1            -7.8220708692        5.3323557830       -0.6084026608  CLST      5               1.0000000000
        25         5  DCM       CL2            -7.5908666356        8.2452755662       -0.4989226921  CLST      5               1.0000000000
        26         6  DCM       C               9.8575905222       -7.1458564845       -5.4316865674  CLST      6               1.0000000000
        27         6  DCM       H1              9.0959817278       -7.3234524749       -4.6442015154  CLST      6               1.0000000000
        28         6  DCM       H2             10.3279279450       -6.1475982857       -5.3156267717  CLST      6               1.0000000000
        29         6  DCM       CL1            11.1261896936       -8.3980211293       -5.3060516845  CLST      6               1.0000000000
        30         6  DCM       CL2             9.0674642983       -7.2345246372       -7.0325298754  CLST      6               1.0000000000
        31         7  DCM       C             -11.8888393567        1.9939769630       -5.7084950868  CLST      7               1.0000000000
        32         7  DCM       H1            -11.2945253181        1.0562878679       -5.7454686532  CLST      7               1.0000000000
        33         7  DCM       H2            -12.0942552607        2.2993235373       -4.6605380128  CLST      7               1.0000000000
        34         7  DCM       CL1           -10.9751361895        3.2938889362       -6.5272142771  CLST      7               1.0000000000
        35         7  DCM       CL2           -13.4430090091        1.7263978030       -6.5485241723  CLST      7               1.0000000000
        36         8  DCM       C              -5.3853769171       -1.4677236577       -3.6780989998  CLST      8               1.0000000000
        37         8  DCM       H1             -4.9019346040       -1.5280317567       -2.6797529418  CLST      8               1.0000000000
        38         8  DCM       H2             -6.4918507275       -1.4968592589       -3.5870759860  CLST      8               1.0000000000
        39         8  DCM       CL1            -4.9065803697        0.0643741861       -4.4648808534  CLST      8               1.0000000000
        40         8  DCM       CL2            -4.8470495065       -2.8515037426       -4.6744048848  CLST      8               1.0000000000
        41         9  DCM       C              -7.5852038836        5.5352378549       -5.8404331413  CLST      9               1.0000000000
        42         9  DCM       H1             -6.8018092220        5.0327636471       -6.4465976776  CLST      9               1.0000000000
        43         9  DCM       H2             -8.5190204957        4.9347382596       -5.8184130724  CLST      9               1.0000000000
        44         9  DCM       CL1            -6.9844036928        5.7413282697       -4.1702845571  CLST      9               1.0000000000
        45         9  DCM       CL2            -7.9367826002        7.1358066271       -6.5534606556  CLST      9               1.0000000000
        46        10  DCM       C               1.5094398377        2.6067419363        1.2909668596  CLST      10              1.0000000000
        47        10  DCM       H1              0.5223424311        2.3774361908        1.7437129679  CLST      10              1.0000000000
        48        10  DCM       H2              1.7165021911        3.6955800265        1.3113870749  CLST      10              1.0000000000
        49        10  DCM       CL1             2.7799074073        1.7639076414        2.2173104755  CLST      10              1.0000000000
        50        10  DCM       CL2             1.5268562532        2.0533426561       -0.4074077217  CLST      10              1.0000000000
        51        11  DCM       C               1.3075758950        6.5536705064        9.8929020418  CLST      11              1.0000000000
        52        11  DCM       H1              1.7383614174        6.3849674481        8.8834155495  CLST      11              1.0000000000
        53        11  DCM       H2              0.2138789387        6.7380944941        9.8345043653  CLST      11              1.0000000000
        54        11  DCM       CL1             1.6039895312        5.1031985073       10.8935221739  CLST      11              1.0000000000
        55        11  DCM       CL2             2.1007613165        7.9782860586       10.6265322287  CLST      11              1.0000000000
        56        12  DCM       C              -4.3726254826        6.2464788348       -1.3101557004  CLST      12              1.0000000000
        57        12  DCM       H1             -5.3269351133        6.6501911663       -1.7092687444  CLST      12              1.0000000000
        58        12  DCM       H2             -3.5044982434        6.8156489005       -1.7042419205  CLST      12              1.0000000000
        59        12  DCM       CL1            -4.3874593831        6.3664060222        0.4733732357  CLST      12              1.0000000000
        60        12  DCM       CL2            -4.2208902884        4.5343530163       -1.7988115256  CLST      12              1.0000000000
        61        13  DCM       C               6.5612861629        3.2606767749        4.1145279337  CLST      13              1.0000000000
        62        13  DCM       H1              7.2413523603        3.3105262998        4.9894701955  CLST      13              1.0000000000
        63        13  DCM       H2              5.8566102890        4.1171653060        4.1070113901  CLST      13              1.0000000000
        64        13  DCM       CL1             7.5388016688        3.2886488559        2.6190393206  CLST      13              1.0000000000
        65        13  DCM       CL2             5.6195634837        1.7489509037        4.2017388531  CLST      13              1.0000000000
        66        14  DCM       C              -5.2897945521       -2.9994440582        9.4654599737  CLST      14              1.0000000000
        67        14  DCM       H1             -6.0469786169       -2.2386935276        9.7507360630  CLST      14              1.0000000000
        68        14  DCM       H2             -4.5049769928       -3.0922503972       10.2456096819  CLST      14              1.0000000000
        69        14  DCM       CL1            -6.0990786319       -4.5802833392        9.2678657485  CLST      14              1.0000000000
        70        14  DCM       CL2            -4.5281259435       -2.5135683334        7.9230493613  CLST      14              1.0000000000
        71        15  DCM       C             -12.6934445337        4.3462696369        0.1938596320  CLST      15              1.0000000000
        72        15  DCM       H1            -13.3228100390        4.0794542714        1.0685931602  CLST      15              1.0000000000
        73        15  DCM       H2            -12.6636002102        5.4463959054        0.0460468843  CLST      15              1.0000000000
        74        15  DCM       CL1           -11.0304059916        3.7517399370        0.4669762454  CLST      15              1.0000000000
        75        15  DCM       CL2           -13.3770742950        3.5772168685       -1.2681810153  CLST      15              1.0000000000
        76        16  DCM       C              -5.8912698713       -6.4189426267       -4.4713449479  CLST      16              1.0000000000
        77        16  DCM       H1             -5.7957125557       -6.7027928373       -5.5398088283  CLST      16              1.0000000000
        78        16  DCM       H2             -5.0387920985       -5.7847682780       -4.1514539582  CLST      16              1.0000000000
        79        16  DCM       CL1            -5.9195378896       -7.9025375045       -3.4790633265  CLST      16              1.0000000000
        80        16  DCM       CL2            -7.4149104828       -5.5161495634       -4.2398970339  CLST      16              1.0000000000
        81        17  DCM       C               6.3474762671       -0.7763571597       -0.0486608414  CLST      17              1.0000000000
        82        17  DCM       H1              6.9213811143       -0.4852631678       -0.9528071556  CLST      17              1.0000000000
        83        17  DCM       H2              6.4063513775       -1.8704784602        0.1275367134  CLST      17              1.0000000000
        84        17  DCM       CL1             7.0280650820        0.0723174693        1.3637918060  CLST      17              1.0000000000
        85        17  DCM       CL2             4.6380355337       -0.3125191290       -0.2648048155  CLST      17              1.0000000000
        86        18  DCM       C               2.7312397045        0.1323505391       -3.5931261328  CLST      18              1.0000000000
        87        18  DCM       H1              1.9878867696        0.3477271749       -2.7978752439  CLST      18              1.0000000000
        88        18  DCM       H2              2.2698645892        0.2078086385       -4.6005092379  CLST      18              1.0000000000
        89        18  DCM       CL1             4.0686501825        1.3119499596       -3.4710874739  CLST      18              1.0000000000
        90        18  DCM       CL2             3.3585638028       -1.5246938678       -3.3634639229  CLST      18              1.0000000000
        91        19  DCM       C               4.3147088502        9.4382629893        1.2491550898  CLST      19              1.0000000000
        92        19  DCM       H1              3.9970221134        9.3682541925        2.3104548028  CLST      19              1.0000000000
        93        19  DCM       H2              5.4125339225        9.3035249763        1.1539406668  CLST      19              1.0000000000
        94        19  DCM       CL1             3.4888353615        8.1665557623        0.3047763096  CLST      19              1.0000000000
        95        19  DCM       CL2             3.8656484116       11.0460184702        0.6127177230  CLST      19              1.0000000000
        96        20  DCM       C               8.1030609733       12.0514869821        3.3778891077  CLST      20              1.0000000000
        97        20  DCM       H1              7.2511965080       12.1902014085        4.0758116339  CLST      20              1.0000000000
        98        20  DCM       H2              8.6266327252       13.0126741615        3.1908479194  CLST      20              1.0000000000
        99        20  DCM       CL1             9.2567525669       10.8901065960        4.0956546961  CLST      20              1.0000000000
       100        20  DCM       CL2             7.4844037588       11.4135664281        1.8267499474  CLST      20              1.0000000000
       101        21  DCM       C               5.1380834988        3.0786227490       -0.1584270970  CLST      21              1.0000000000
       102        21  DCM       H1              4.3402461755        2.6074281377       -0.7681392993  CLST      21              1.0000000000
       103        21  DCM       H2              5.3410261835        2.4869150211        0.7588123109  CLST      21              1.0000000000
       104        21  DCM       CL1             6.6299458419        3.1664924417       -1.1376181081  CLST      21              1.0000000000
       105        21  DCM       CL2             4.6094028654        4.7174970489        0.3143605546  CLST      21              1.0000000000
       106        22  DCM       C              -8.2000961743       -8.6008608059       -6.5149185227  CLST      22              1.0000000000
       107        22  DCM       H1             -9.0009715033       -9.2869296243       -6.8628898905  CLST      22              1.0000000000
       108        22  DCM       H2             -8.2646672974       -8.4343723221       -5.4186689037  CLST      22              1.0000000000
       109        22  DCM       CL1            -6.6106152154       -9.3234494959       -6.8999952713  CLST      22              1.0000000000
       110        22  DCM       CL2            -8.3743466987       -7.0310867908       -7.3537306167  CLST      22              1.0000000000
       111        23  DCM       C               8.9068113501        8.9555460494       -8.4750640861  CLST      23              1.0000000000
       112        23  DCM       H1              9.3169689822        9.5732947409       -9.3016240804  CLST      23              1.0000000000
       113        23  DCM       H2              9.1383377363        9.4077965108       -7.4874790263  CLST      23              1.0000000000
       114        23  DCM       CL1             7.1322254617        8.8390942674       -8.6591310793  CLST      23              1.0000000000
       115        23  DCM       CL2             9.6321811467        7.3237365411       -8.5561357803  CLST      23              1.0000000000
       116        24  DCM       C               0.8485929148       -7.6159405781        2.4396098215  CLST      24              1.0000000000
       117        24  DCM       H1              0.1714347172       -6.8137140232        2.8015555779  CLST      24              1.0000000000
       118        24  DCM       H2              1.6057782577       -7.8760400047        3.2073096368  CLST      24              1.0000000000
       119        24  DCM       CL1            -0.1131885480       -9.0736064357        2.0580738207  CLST      24              1.0000000000
       120        24  DCM       CL2             1.6942619338       -7.0430823131        0.9762357557  CLST      24              1.0000000000
       121        25  DCM       C              -8.7503735013       -2.4967519436       -9.5797932793  CLST      25              1.0000000000
       122        25  DCM       H1             -9.6847720527       -2.0112105738       -9.2295864376  CLST      25              1.0000000000
       123        25  DCM       H2             -7.9158776469       -2.3118853082       -8.8726270817  CLST      25              1.0000000000
       124        25  DCM       CL1            -9.0266609010       -4.2573662308       -9.7059604907  CLST      25              1.0000000000
       125        25  DCM       CL2            -8.3070695774       -1.8313139695      -11.1776835516  CLST      25              1.0000000000
       126        26  DCM       C             -12.0116480579        3.7886449957        3.9965201126  CLST      26              1.0000000000
       127        26  DCM       H1            -10.9581375407        4.1062125132        3.8482265893  CLST      26              1.0000000000
       128        26  DCM       H2            -12.3404325289        3.1116132691        3.1808167530  CLST      26              1.0000000000
       129        26  DCM       CL1           -12.1505509281        2.9243598972        5.5544612651  CLST      26              1.0000000000
       130        26  DCM       CL2           -13.0598718641        5.2360175255        4.0082138703  CLST      26              1.0000000000
       131        27  DCM       C              11.3144157271       -4.7263274664       -1.9037262681  CLST      27              1.0000000000
       132        27  DCM       H1             10.8656051165       -5.0770635587       -0.9503130028  CLST      27              1.0000000000
       133        27  DCM       H2             11.9335152760       -3.8180112992       -1.7454507049  CLST      27              1.0000000000
       134        27  DCM       CL1            12.3422628128       -6.0232972200       -2.5785874575  CLST      27              1.0000000000
       135        27  DCM       CL2            10.0043370763       -4.3374973942       -3.0524815188  CLST      27              1.0000000000
       136        28  DCM       C               7.4564010648        0.0151304066       -4.2367698480  CLST      28              1.0000000000
       137        28  DCM       H1              6.9129422287        0.1174044740       -3.2740398269  CLST      28              1.0000000000
       138        28  DCM       H2              7.6413412001        1.0083827703       -4.6975940603  CLST      28              1.0000000000
       139        28  DCM       CL1             9.0249306414       -0.7893235353       -3.9384149612  CLST      28              1.0000000000
       140        28  DCM       CL2             6.4711508848       -0.9705423712       -5.3567777773  CLST      28              1.0000000000
       141        29  DCM       C              -3.0010658181      -10.1989455588       -5.2946319607  CLST      29              1.0000000000
       142        29  DCM       H1             -3.7378611879      -10.8206826357       -5.8458631071  CLST      29              1.0000000000
       143        29  DCM       H2             -1.9615530548      -10.5298589929       -5.5025228650  CLST      29              1.0000000000
       144        29  DCM       CL1            -3.1840371632       -8.4955914011       -5.8042036100  CLST      29              1.0000000000
       145        29  DCM       CL2            -3.3138401400      -10.3454647632       -3.5414267186  CLST      29              1.0000000000
       146        30  DCM       C              12.1549038304       -1.6132792643      -10.2610280659  CLST      30              1.0000000000
       147        30  DCM       H1             11.0796905016       -1.7213303226      -10.0087715894  CLST      30              1.0000000000
       148        30  DCM       H2             12.4647093746       -0.5471579003      -10.2358058522  CLST      30              1.0000000000
       149        30  DCM       CL1            13.1240655529       -2.5320275340       -9.0738999325  CLST      30              1.0000000000
       150        30  DCM       CL2            12.4316762030       -2.2623917397      -11.9030823953  CLST      30              1.0000000000
       151        31  DCM       C              11.0829147702        5.9306443710        4.8659064203  CLST      31              1.0000000000
       152        31  DCM       H1             11.6063603226        5.4996037940        3.9862513628  CLST      31              1.0000000000
       153        31  DCM       H2             11.6086999596        5.6766147279        5.8106803231  CLST      31              1.0000000000
       154        31  DCM       CL1             9.4258467319        5.2713057080        4.9311364682  CLST      31              1.0000000000
       155        31  DCM       CL2            11.0142614714        7.7074479761        4.6928511991  CLST      31              1.0000000000
       156        32  DCM       C              -1.7200989274       -8.7551152494        6.4569779006  CLST      32              1.0000000000
       157        32  DCM       H1             -1.5614500045       -9.6896983000        5.8782034141  CLST      32              1.0000000000
       158        32  DCM       H2             -2.8015755528       -8.5772253031        6.6380293926  CLST      32              1.0000000000
       159        32  DCM       CL1            -0.8763341096       -8.8894042995        8.0263313773  CLST      32              1.0000000000
       160        32  DCM       CL2            -1.0476685405       -7.3824234146        5.5336098467  CLST      32              1.0000000000
       161        33  DCM       C              -3.2178567871       -6.9368834272        2.6757505085  CLST      33              1.0000000000
       162        33  DCM       H1             -2.3498971928       -7.1893894507        2.0329051482  CLST      33              1.0000000000
       163        33  DCM       H2             -2.9239781548       -6.2260818027        3.4762063265  CLST      33              1.0000000000
       164        33  DCM       CL1            -4.4878291556       -6.1895096196        1.6665319999  CLST      33              1.0000000000
       165        33  DCM       CL2            -3.8407725652       -8.4341262660        3.4247555659  CLST      33              1.0000000000
       166        34  DCM       C             -10.9724687615        5.7129311400       -3.8383768156  CLST      34              1.0000000000
       167        34  DCM       H1            -10.1887434878        6.3443291239       -4.3072691463  CLST      34              1.0000000000
       168        34  DCM       H2            -11.7188169341        5.3834385262       -4.5903331330  CLST      34              1.0000000000
       169        34  DCM       CL1           -10.2064209289        4.2689991942       -3.1168542224  CLST      34              1.0000000000
       170        34  DCM       CL2           -11.8046905829        6.6577015060       -2.5703643565  CLST      34              1.0000000000
       171        35  DCM       C              -1.4700318293       -1.3387263017       -3.5529233814  CLST      35              1.0000000000
       172        35  DCM       H1             -1.6900542924       -1.4794000827       -2.4734565935  CLST      35              1.0000000000
       173        35  DCM       H2             -2.3762432386       -1.5030299578       -4.1692240587  CLST      35              1.0000000000
       174        35  DCM       CL1            -0.8869705655        0.3274477935       -3.8235470604  CLST      35              1.0000000000
       175        35  DCM       CL2            -0.2146804523       -2.5035861520       -4.0580408550  CLST      35              1.0000000000
       176        36  DCM       C               3.1959472485       11.3531725724        5.1909807031  CLST      36              1.0000000000
       177        36  DCM       H1              2.2779692880       11.0301595094        4.6564225090  CLST      36              1.0000000000
       178        36  DCM       H2              3.7488480833       10.4806443720        5.5970813457  CLST      36              1.0000000000
       179        36  DCM       CL1             4.2538795662       12.2361130257        4.0529219708  CLST      36              1.0000000000
       180        36  DCM       CL2             2.7365643136       12.4225387652        6.5474502115  CLST      36              1.0000000000
       181        37  DCM       C              -1.2451279388       -4.9206899356        8.4787915584  CLST      37              1.0000000000
       182        37  DCM       H1             -1.6124929662       -4.1567422554        7.7622247763  CLST      37              1.0000000000
       183        37  DCM       H2             -1.6263801091       -5.9293930163        8.2165643262  CLST      37              1.0000000000
       184        37  DCM       CL1             0.5409122930       -4.9538779666        8.4395064038  CLST      37              1.0000000000
       185        37  DCM       CL2            -1.8114399418       -4.4896184219       10.1173095007  CLST      37              1.0000000000
       186        38  DCM       C              -8.2635345143        2.0240150954        8.5331529310  CLST      38              1.0000000000
       187        38  DCM       H1             -8.1105246034        3.0344922329        8.0982110710  CLST      38              1.0000000000
       188        38  DCM       H2             -8.4540463646        2.0858113366        9.6254902561  CLST      38              1.0000000000
       189        38  DCM       CL1            -9.6732019986        1.2615817724        7.7424836362  CLST      38              1.0000000000
       190        38  DCM       CL2            -6.8004631277        1.0363116342        8.2490911495  CLST      38              1.0000000000
       191        39  DCM       C               8.9660351419       -5.3121479324        5.0680330615  CLST      39              1.0000000000
       192        39  DCM       H1              7.9346788141       -5.3711078842        5.4749920279  CLST      39              1.0000000000
       193        39  DCM       H2              9.4922222203       -6.2847388035        5.1699680389  CLST      39              1.0000000000
       194        39  DCM       CL1             8.8874556413       -4.8711417416        3.3371410390  CLST      39              1.0000000000
       195        39  DCM       CL2             9.8708738913       -4.0634038303        5.9710542572  CLST      39              1.0000000000
       196        40  DCM       C               2.5867343283       -4.4772624778        5.0032793915  CLST      40              1.0000000000
       197        40  DCM       H1              1.9425903010       -3.7738215263        5.5720519264  CLST      40              1.0000000000
       198        40  DCM       H2              3.6610782190       -4.2778549721        5.1928765504  CLST      40              1.0000000000
       199        40  DCM       CL1             2.2573480868       -4.2981713408        3.2593200291  CLST      40              1.0000000000
       200        40  DCM       CL2             2.2155825545       -6.1472468315        5.5031549349  CLST      40              1.0000000000
       201        41  DCM       C               8.0141189690       -7.1645686527       -1.1734904044  CLST      41              1.0000000000
       202        41  DCM       H1              8.0808449563       -7.1801086059       -0.0650633441  CLST      41              1.0000000000
       203        41  DCM       H2              8.0774237020       -6.1268166358       -1.5641513949  CLST      41              1.0000000000
       204        41  DCM       CL1             6.4506644231       -7.8760264371       -1.6688885717  CLST      41              1.0000000000
       205        41  DCM       CL2             9.3623551960       -8.1242056891       -1.8456039561  CLST      41              1.0000000000
       206        42  DCM       C              -0.0254270859      -10.5519116050       -1.6055912224  CLST      42              1.0000000000
       207        42  DCM       H1             -0.7760975612       -9.7508603178       -1.7692038045  CLST      42              1.0000000000
       208        42  DCM       H2             -0.2968555308      -11.1775325218       -0.7290630191  CLST      42              1.0000000000
       209        42  DCM       CL1             1.5704516755       -9.8028756366       -1.3147578150  CLST      42              1.0000000000
       210        42  DCM       CL2             0.0498097401      -11.5824800841       -3.0645718504  CLST      42              1.0000000000
       211        43  DCM       C               4.7449972381       -5.1608051694        0.5100027868  CLST      43              1.0000000000
       212        43  DCM       H1              4.6341333697       -5.9681918492       -0.2438349654  CLST      43              1.0000000000
       213        43  DCM       H2              4.3253017500       -5.4749863513        1.4881078823  CLST      43              1.0000000000
       214        43  DCM       CL1             6.4764749793       -4.7772315557        0.7134098338  CLST      43              1.0000000000
       215        43  DCM       CL2             3.8752863306       -3.7093370074       -0.0542110616  CLST      43              1.0000000000
       216        44  DCM       C             -11.2928988135        5.9702370307        7.4909132508  CLST      44              1.0000000000
       217        44  DCM       H1            -12.2108553396        5.5961270098        6.9903158328  CLST      44              1.0000000000
       218        44  DCM       H2            -11.4969558862        6.9068049618        8.0516137373  CLST      44              1.0000000000
       219        44  DCM       CL1           -10.7026774368        4.7265757488        8.6306042772  CLST      44              1.0000000000
       220        44  DCM       CL2           -10.0457311167        6.2939022407        6.2532333603  CLST      44              1.0000000000
       221        45  DCM       C              -3.5015044380        6.0905181660        4.3888040170  CLST      45              1.0000000000
       222        45  DCM       H1             -4.5559484459        6.4162753070        4.2722218510  CLST      45              1.0000000000
       223        45  DCM       H2             -3.2289219355        5.9997270674        5.4615333393  CLST      45              1.0000000000
       224        45  DCM       CL1            -3.2918608696        4.5009641635        3.6006403513  CLST      45              1.0000000000
       225        45  DCM       CL2            -2.4348856319        7.2960167725        3.6140427657  CLST      45              1.0000000000
       226        46  DCM       C               2.8567958530       -8.0303486433        8.4921602587  CLST      46              1.0000000000
       227        46  DCM       H1              1.9735549165       -7.8304903709        7.8499032230  CLST      46              1.0000000000
       228        46  DCM       H2              3.0606506175       -7.1724072279        9.1672089469  CLST      46              1.0000000000
       229        46  DCM       CL1             2.5294921553       -9.4846918635        9.4777508215  CLST      46              1.0000000000
       230        46  DCM       CL2             4.2856351284       -8.3059310298        7.4515013163  CLST      46              1.0000000000
       231        47  DCM       C               7.9168460287       12.1150788923      -10.5154938628  CLST      47              1.0000000000
       232        47  DCM       H1              7.4143602244       11.1360711580      -10.6630513853  CLST      47              1.0000000000
       233        47  DCM       H2              7.3841970593       12.9221008497      -11.0617257844  CLST      47              1.0000000000
       234        47  DCM       CL1             7.9356751707       12.5041836298       -8.7708499153  CLST      47              1.0000000000
       235        47  DCM       CL2             9.5915733831       12.0035369303      -11.1300029015  CLST      47              1.0000000000
       236        48  DCM       C               8.3486194942        6.1451138868        0.1266965219  CLST      48              1.0000000000
       237        48  DCM       H1              7.5527669027        5.4727083497        0.5093233082  CLST      48              1.0000000000
       238        48  DCM       H2              8.8137025828        5.7280405208       -0.7914365382  CLST      48              1.0000000000
       239        48  DCM       CL1             7.6282153429        7.7370412803       -0.2533055702  CLST      48              1.0000000000
       240        48  DCM       CL2             9.6022889158        6.3300517678        1.3877102130  CLST      48              1.0000000000
       241        49  DCM       C              11.9604304451        1.6704127480        4.4314418428  CLST      49              1.0000000000
       242        49  DCM       H1             13.0437514613        1.8945920925        4.3353818048  CLST      49              1.0000000000
       243        49  DCM       H2             11.7809234428        0.5749911710        4.4639808743  CLST      49              1.0000000000
       244        49  DCM       CL1            11.3502362398        2.3987238782        5.9447554383  CLST      49              1.0000000000
       245        49  DCM       CL2            11.0941914227        2.3658629433        3.0296454157  CLST      49              1.0000000000
       246        50  DCM       C              -6.0244084895        2.7613730262        1.2138417371  CLST      50              1.0000000000
       247        50  DCM       H1             -5.6512077991        3.7836595550        1.4344588828  CLST      50              1.0000000000
       248        50  DCM       H2             -5.9147725320        2.5226191515        0.1347581349  CLST      50              1.0000000000
       249        50  DCM       CL1            -5.0899910448        1.5806970519        2.1729176341  CLST      50              1.0000000000
       250        50  DCM       CL2            -7.7502251820        2.6601030477        1.6619287579  CLST      50              1.0000000000
       251        51  DCM       C               8.6051911772       -0.1562112436        4.6086363179  CLST      51              1.0000000000
       252        51  DCM       H1              7.5320084351       -0.3781500292        4.4374674538  CLST      51              1.0000000000
       253        51  DCM       H2              8.8369951630        0.8982631679        4.3493962907  CLST      51              1.0000000000
       254        51  DCM       CL1             8.9829746160       -0.4315511777        6.3324527287  CLST      51              1.0000000000
       255        51  DCM       CL2             9.5881083521       -1.2474083225        3.5905709254  CLST      51              1.0000000000
       256        52  DCM       C              -2.1537564615       -3.5687904609        0.1965417918  CLST      52              1.0000000000
       257        52  DCM       H1             -1.5279425844       -3.3695282217       -0.6977669424  CLST      52              1.0000000000
       258        52  DCM       H2             -2.9697233712       -4.2819917554       -0.0386128635  CLST      52              1.0000000000
       259        52  DCM       CL1            -1.1260713848       -4.2754799875        1.4751969763  CLST      52              1.0000000000
       260        52  DCM       CL2            -2.8709219822       -2.0319723482        0.7563867792  CLST      52              1.0000000000
       261        53  DCM       C               5.7658614826       -2.7279536387        3.5557938857  CLST      53              1.0000000000
       262        53  DCM       H1              6.6736221225       -2.4217480074        2.9937264142  CLST      53              1.0000000000
       263        53  DCM       H2              5.4028487860       -3.7187725003        3.2150481110  CLST      53              1.0000000000
       264        53  DCM       CL1             4.4694576368       -1.5266245110        3.2927476593  CLST      53              1.0000000000
       265        53  DCM       CL2             6.1623127907       -2.8238689726        5.2956618800  CLST      53              1.0000000000
       266        54  DCM       C               5.6327246584        9.8161055564      -13.6122653228  CLST      54              1.0000000000
       267        54  DCM       H1              6.2174708374        8.9639135753      -14.0182157655  CLST      54              1.0000000000
       268        54  DCM       H2              4.6880388038        9.9584530337      -14.1783827300  CLST      54              1.0000000000
       269        54  DCM       CL1             5.2405493478        9.4900542916      -11.8984951746  CLST      54              1.0000000000
       270        54  DCM       CL2             6.6164709198       11.3032885491      -13.7379114539  CLST      54              1.0000000000
       271        55  DCM       C              -1.9893221192        1.6278618196       -0.7022162998  CLST      55              1.0000000000
       272        55  DCM       H1             -1.5532778666        2.1437986310       -1.5834249643  CLST      55              1.0000000000
       273        55  DCM       H2             -1.3364527275        0.7989052763       -0.3576942281  CLST      55              1.0000000000
       274        55  DCM       CL1            -2.1667431043        2.8124697934        0.6227598175  CLST      55              1.0000000000
       275        55  DCM       CL2            -3.5856678746        0.9589872575       -1.1490335463  CLST      55              1.0000000000
       276        56  DCM       C               4.6888131580        6.4060112353        7.1447435339  CLST      56              1.0000000000
       277        56  DCM       H1              3.8903786687        5.7790446338        6.6971863053  CLST      56              1.0000000000
       278        56  DCM       H2              4.5027170774        7.4819628506        6.9476600658  CLST      56              1.0000000000
       279        56  DCM       CL1             4.7375829542        6.1231095836        8.9076535910  CLST      56              1.0000000000
       280        56  DCM       CL2             6.2552566622        5.9463943102        6.4267785291  CLST      56              1.0000000000
       281        57  DCM       C               9.2794648816       -0.0197737761      -12.1388226883  CLST      57              1.0000000000
       282        57  DCM       H1              9.6139284604       -1.0500790517      -12.3842198242  CLST      57              1.0000000000
       283        57  DCM       H2              8.4646042973        0.3071901623      -12.8186727733  CLST      57              1.0000000000
       284        57  DCM       CL1             8.6803476424        0.0143504684      -10.4543951193  CLST      57              1.0000000000
       285        57  DCM       CL2            10.6646164980        1.0974245278      -12.3108111170  CLST      57              1.0000000000
       286        58  DCM       C              -0.0050546898        8.3011350175        6.1759724187  CLST      58              1.0000000000
       287        58  DCM       H1              0.2052171851        8.1446690790        5.0967593498  CLST      58              1.0000000000
       288        58  DCM       H2             -0.7671084597        9.0958112834        6.3219597218  CLST      58              1.0000000000
       289        58  DCM       CL1            -0.6174091272        6.7732837816        6.8723596236  CLST      58              1.0000000000
       290        58  DCM       CL2             1.5049622439        8.7815362480        7.0037284544  CLST      58              1.0000000000
       291        59  DCM       C               1.2552101786       -1.5291659759        1.0250779295  CLST      59              1.0000000000
       292        59  DCM       H1              2.2608640596       -1.0753918973        1.1416487438  CLST      59              1.0000000000
       293        59  DCM       H2              1.2816324327       -2.6154257864        1.2451957839  CLST      59              1.0000000000
       294        59  DCM       CL1             0.1239017929       -0.7259915737        2.1506124100  CLST      59              1.0000000000
       295        59  DCM       CL2             0.7000533113       -1.3107398226       -0.6569386164  CLST      59              1.0000000000
       296        60  DCM       C              -5.6071116452       -6.3014238338        5.8836406070  CLST      60              1.0000000000
       297        60  DCM       H1             -6.3928071733       -5.6354354516        6.2957577104  CLST      60              1.0000000000
       298        60  DCM       H2             -5.5952383071       -6.2684511565        4.7742065411  CLST      60              1.0000000000
       299        60  DCM       CL1            -4.0178962150       -5.7695799206        6.4936757655  CLST      60              1.0000000000
       300        60  DCM       CL2            -5.9272596154       -7.9751949574        6.4186927756  CLST      60              1.0000000000
       301        61  DCM       C               8.4792928355        4.2048179647        8.9109552453  CLST      61              1.0000000000
       302        61  DCM       H1              8.5654627644        3.7340427365        9.9128213430  CLST      61              1.0000000000
       303        61  DCM       H2              7.6779006769        4.9734063899        8.8995160280  CLST      61              1.0000000000
       304        61  DCM       CL1             8.0911242597        2.9413170211        7.7080879944  CLST      61              1.0000000000
       305        61  DCM       CL2            10.0364933743        4.9792138475        8.4959265118  CLST      61              1.0000000000
       306        62  DCM       C              10.4494675836       -0.1400504142        0.0489933657  CLST      62              1.0000000000
       307        62  DCM       H1             10.2595851758        0.0952733106        1.1167617526  CLST      62              1.0000000000
       308        62  DCM       H2             11.5374646610       -0.1448538791       -0.1723651431  CLST      62              1.0000000000
       309        62  DCM       CL1             9.7701846961       -1.7529809181       -0.3227777551  CLST      62              1.0000000000
       310        62  DCM       CL2             9.6566106189        1.1061145174       -0.9572992500  CLST      62              1.0000000000
       311        63  DCM       C              -8.4692851092       -2.1193798910        7.3450072303  CLST      63              1.0000000000
       312        63  DCM       H1             -7.4275909800       -1.7381723047        7.3032808007  CLST      63              1.0000000000
       313        63  DCM       H2             -9.1577003286       -1.4633058580        6.7731697396  CLST      63              1.0000000000
       314        63  DCM       CL1            -9.0015699058       -2.1732853171        9.0498778269  CLST      63              1.0000000000
       315        63  DCM       CL2            -8.5164409349       -3.7586678985        6.6399976609  CLST      63              1.0000000000
       316        64  DCM       C              -2.8421676731       -6.7743394839       -2.0100454504  CLST      64              1.0000000000
       317        64  DCM       H1             -2.8446193400       -7.5890241278       -2.7635093480  CLST      64              1.0000000000
       318        64  DCM       H2             -3.8316424719       -6.6842935748       -1.5160785557  CLST      64              1.0000000000
       319        64  DCM       CL1            -1.6065592768       -7.1294476408       -0.7722479785  CLST      64              1.0000000000
       320        64  DCM       CL2            -2.4531362725       -5.2349347134       -2.8265692657  CLST      64              1.0000000000
       321        65  DCM       C              -9.7943069878       -3.3341354230       -6.0034143613  CLST      65              1.0000000000
       322        65  DCM       H1             -9.7770784533       -4.1616464700       -6.7441640072  CLST      65              1.0000000000
       323        65  DCM       H2            -10.0247356476       -3.7152712213       -4.9860891986  CLST      65              1.0000000000
       324        65  DCM       CL1            -8.1927008262       -2.5423606896       -5.9768114483  CLST      65              1.0000000000
       325        65  DCM       CL2           -11.0449456983       -2.1483893149       -6.4785146475  CLST      65              1.0000000000
       326        66  DCM       C             -14.6408755036        6.4963188843       -4.7448035951  CLST      66              1.0000000000
       327        66  DCM       H1            -14.8325206279        6.9206933433       -3.7365905965  CLST      66              1.0000000000
       328        66  DCM       H2            -13.6726858315        6.8547543594       -5.1515452102  CLST      66              1.0000000000
       329        66  DCM       CL1           -14.5926696303        4.7134312701       -4.6263434700  CLST      66              1.0000000000
       330        66  DCM       CL2           -15.9522677526        6.9992610363       -5.8497330620  CLST      66              1.0000000000
       331        67  DCM       C              -0.6591290077        6.0881188206        0.2496301232  CLST      67              1.0000000000
       332        67  DCM       H1             -0.7203741779        5.5181107678        1.2009626068  CLST      67              1.0000000000
       333        67  DCM       H2             -1.5574327656        5.9081589169       -0.3762869388  CLST      67              1.0000000000
       334        67  DCM       CL1            -0.5423249106        7.8320632417        0.6197887126  CLST      67              1.0000000000
       335        67  DCM       CL2             0.7876102368        5.5721083704       -0.6621431406  CLST      67              1.0000000000
       336        68  DCM       C               2.7171831111        2.7447541097        7.9539195963  CLST      68              1.0000000000
       337        68  DCM       H1              2.7143421435        3.0508515064        9.0210837091  CLST      68              1.0000000000
       338        68  DCM       H2              2.3013907573        1.7228251516        7.8281997063  CLST      68              1.0000000000
       339        68  DCM       CL1             1.7242077527        3.8971372516        7.0156699910  CLST      68              1.0000000000
       340        68  DCM       CL2             4.4000325360        2.7638720969        7.3540307072  CLST      68              1.0000000000
       341        69  DCM       C               2.2449953399        5.9470986084        3.0490577772  CLST      69              1.0000000000
       342        69  DCM       H1              3.0186422055        5.1576648576        2.9376126761  CLST      69              1.0000000000
       343        69  DCM       H2              1.9821138595        6.3907188781        2.0661657152  CLST      69              1.0000000000
       344        69  DCM       CL1             0.7755073794        5.2296830947        3.7706692880  CLST      69              1.0000000000
       345        69  DCM       CL2             2.8767200274        7.2339263501        4.1138259613  CLST      69              1.0000000000
       346        70  DCM       C             -10.9990225952       -0.2322371508        4.2183530729  CLST      70              1.0000000000
       347        70  DCM       H1            -12.0881960445       -0.2071532939        4.4342765959  CLST      70              1.0000000000
       348        70  DCM       H2            -10.4201129358        0.2327933143        5.0437372386  CLST      70              1.0000000000
       349        70  DCM       CL1           -10.4809857344       -1.9325566275        4.0218012774  CLST      70              1.0000000000
       350        70  DCM       CL2           -10.6830136184        0.6743040486        2.7110886863  CLST      70              1.0000000000
       351        71  DCM       C               9.9358875608       -4.7943139035      -10.0820944275  CLST      71              1.0000000000
       352        71  DCM       H1             10.5146972337       -4.2109977927       -9.3359280755  CLST      71              1.0000000000
       353        71  DCM       H2              9.2818654629       -5.5410377857       -9.5845210858  CLST      71              1.0000000000
       354        71  DCM       CL1             8.9210694421       -3.6729974127      -11.0339124945  CLST      71              1.0000000000
       355        71  DCM       CL2            11.0762878144       -5.6469183913      -11.1617760204  CLST      71              1.0000000000
       356        72  DCM       C              -1.9297213419       -1.6098451591       -7.2588230133  CLST      72              1.0000000000
       357        72  DCM       H1             -0.9408686409       -1.9088365162       -6.8518486216  CLST      72              1.0000000000
       358        72  DCM       H2             -2.7547537446       -1.9550395460       -6.6015232259  CLST      72              1.0000000000
       359        72  DCM       CL1            -1.9960787592        0.1717558639       -7.3792489946  CLST      72              1.0000000000
       360        72  DCM       CL2            -2.1335832961       -2.3420614817       -8.8764242481  CLST      72              1.0000000000
       361        73  DCM       C               8.5131771300        8.4301958194        7.5327514037  CLST      73              1.0000000000
       362        73  DCM       H1              7.6460120020        8.7937196049        6.9436442148  CLST      73              1.0000000000
       363        73  DCM       H2              8.9710863345        7.5357878486        7.0599679443  CLST      73              1.0000000000
       364        73  DCM       CL1             9.7340614651        9.7307679631        7.6282192734  CLST      73              1.0000000000
       365        73  DCM       CL2             7.9550956407        8.0023138308        9.1755152502  CLST      73              1.0000000000
       366        74  DCM       C               1.2062534260       -8.5602632165       -5.0606475821  CLST      74              1.0000000000
       367        74  DCM       H1              1.7082216287       -9.3260933514       -4.4316654362  CLST      74              1.0000000000
       368        74  DCM       H2              1.9109666114       -7.7481839965       -5.3384010197  CLST      74              1.0000000000
       369        74  DCM       CL1            -0.1557793285       -7.8585740048       -4.1427378631  CLST      74              1.0000000000
       370        74  DCM       CL2             0.5935232547       -9.3340639171       -6.5500622337  CLST      74              1.0000000000
       371        75  DCM       C               1.9701580429       -5.1629774549       -2.9435959939  CLST      75              1.0000000000
       372        75  DCM       H1              2.6739384486       -4.3221635518       -3.1095660057  CLST      75              1.0000000000
       373        75  DCM       H2              1.3427550645       -5.3414139419       -3.8412667403  CLST      75              1.0000000000
       374        75  DCM       CL1             2.9012950629       -6.6413988207       -2.5698131392  CLST      75              1.0000000000
       375        75  DCM       CL2             0.9048424165       -4.7588017762       -1.5712456268  CLST      75              1.0000000000
       376        76  DCM       C              -6.6605306627        3.4729199147        5.2375394711  CLST      76              1.0000000000
       377        76  DCM       H1             -6.2043093349        3.6729941749        4.2454527639  CLST      76              1.0000000000
       378        76  DCM       H2             -6.2688170240        2.5294877765        5.6702711523  CLST      76              1.0000000000
       379        76  DCM       CL1            -6.2792837486        4.8230372806        6.3441396813  CLST      76              1.0000000000
       380        76  DCM       CL2            -8.4310434723        3.3337941512        5.0464465743  CLST      76              1.0000000000
       381        77  DCM       C              -3.7395332540       -7.5210713922        9.9711734891  CLST      77              1.0000000000
       382        77  DCM       H1             -2.6318862162       -7.5068894267       10.0436303739  CLST      77              1.0000000000
       383        77  DCM       H2             -4.0997349167       -6.8171673436        9.1928568510  CLST      77              1.0000000000
       384        77  DCM       CL1            -4.2752054135       -9.1727347780        9.5492143184  CLST      77              1.0000000000
       385        77  DCM       CL2            -4.4283865315       -7.0383507029       11.5477631682  CLST      77              1.0000000000
       386        78  DCM       C               4.9651568980       -8.1868430318        3.7019772298  CLST      78              1.0000000000
       387        78  DCM       H1              3.9367009998       -8.3015664004        4.1048716959  CLST      78              1.0000000000
       388        78  DCM       H2              5.6580358830       -8.9175072413        4.1704604610  CLST      78              1.0000000000
       389        78  DCM       CL1             4.9340615041       -8.4631305349        1.9364506437  CLST      78              1.0000000000
       390        78  DCM       CL2             5.5471603811       -6.5331712261        4.0460312812  CLST      78              1.0000000000
       391        79  DCM       C              -9.6285722240        1.1847328071       -9.1383400283  CLST      79              1.0000000000
       392        79  DCM       H1             -9.0240899221        0.8593937116      -10.0108823934  CLST      79              1.0000000000
       393        79  DCM       H2             -9.7225533802        2.2907578567       -9.1092947726  CLST      79              1.0000000000
       394        79  DCM       CL1           -11.2603983113        0.4668163474       -9.2615850621  CLST      79              1.0000000000
       395        79  DCM       CL2            -8.8339052103        0.6283694694       -7.6365655191  CLST      79              1.0000000000
       396        80  DCM       C               8.0660679936        6.9550758755      -11.8432973520  CLST      80              1.0000000000
       397        80  DCM       H1              7.2668361592        7.1180737554      -11.0898257404  CLST      80              1.0000000000
       398        80  DCM       H2              8.8334466406        6.2476516342      -11.4634334153  CLST      80              1.0000000000
       399        80  DCM       CL1             7.3339027156        6.2805740852      -13.3279284277  CLST      80              1.0000000000
       400        80  DCM       CL2             8.8489803651        8.5202254968      -12.2093798392  CLST      80              1.0000000000
       401        81  DCM       C             -10.4367683490        9.8713705183       -5.1774522324  CLST      81              1.0000000000
       402        81  DCM       H1            -10.0963178384        9.4176935581       -6.1323558023  CLST      81              1.0000000000
       403        81  DCM       H2            -10.3372083449       10.9772292181       -5.2026529790  CLST      81              1.0000000000
       404        81  DCM       CL1           -12.1535951343        9.4487697298       -4.9096728997  CLST      81              1.0000000000
       405        81  DCM       CL2            -9.4373992741        9.2305394363       -3.8409311202  CLST      81              1.0000000000
       406        82  DCM       C              -8.5337666878       -5.1032670725        3.0841849242  CLST      82              1.0000000000
       407        82  DCM       H1             -9.2111308351       -5.0086061511        3.9592469755  CLST      82              1.0000000000
       408        82  DCM       H2             -9.0763808113       -4.8981184087        2.1372319966  CLST      82              1.0000000000
       409        82  DCM       CL1            -7.1946178050       -3.9310363744        3.2544270111  CLST      82              1.0000000000
       410        82  DCM       CL2            -7.8813659778       -6.7668097737        3.0322577542  CLST      82              1.0000000000
       411        83  DCM       C               2.5888487785      -11.2765443566        5.9389823970  CLST      83              1.0000000000
       412        83  DCM       H1              2.8797710441      -11.1158606588        6.9983294861  CLST      83              1.0000000000
       413        83  DCM       H2              1.9879110224      -12.2033591783        5.8254302852  CLST      83              1.0000000000
       414        83  DCM       CL1             4.0680565713      -11.4162241805        4.9461695723  CLST      83              1.0000000000
       415        83  DCM       CL2             1.6197639153       -9.8822891105        5.3838283499  CLST      83              1.0000000000
       416        84  DCM       C              -5.1380471944       -0.2574886593       -9.5677081326  CLST      84              1.0000000000
       417        84  DCM       H1             -4.0434361634       -0.0847346095       -9.6369728446  CLST      84              1.0000000000
       418        84  DCM       H2             -5.4739262337       -0.9928413488      -10.3286129619  CLST      84              1.0000000000
       419        84  DCM       CL1            -5.5261122637       -0.8832922279       -7.9385372439  CLST      84              1.0000000000
       420        84  DCM       CL2            -5.9865368910        1.2909957209       -9.8424896657  CLST      84              1.0000000000
       421        85  DCM       C              13.3046851972       -5.1977364766       -6.2538390390  CLST      85              1.0000000000
       422        85  DCM       H1             14.3258059393       -4.8975704512       -6.5708853121  CLST      85              1.0000000000
       423        85  DCM       H2             13.3420715028       -5.9846652922       -5.4710202806  CLST      85              1.0000000000
       424        85  DCM       CL1            12.4232566996       -5.8334189387       -7.6715133682  CLST      85              1.0000000000
       425        85  DCM       CL2            12.4544423086       -3.7660512668       -5.6043629155  CLST      85              1.0000000000
       426        86  DCM       C               5.7282316509      -11.1969344031       10.1657951928  CLST      86              1.0000000000
       427        86  DCM       H1              4.7438751280      -11.2810665210       10.6730601511  CLST      86              1.0000000000
       428        86  DCM       H2              6.4799600847      -11.8644643158       10.6373737196  CLST      86              1.0000000000
       429        86  DCM       CL1             5.5379829819      -11.6571545081        8.4484871581  CLST      86              1.0000000000
       430        86  DCM       CL2             6.2980948209       -9.5062346682       10.2827966837  CLST      86              1.0000000000
       431        87  DCM       C              -8.0152236906       -0.7213179323        0.7359547433  CLST      87              1.0000000000
       432        87  DCM       H1             -8.3543862005        0.1141559410        0.0876118112  CLST      87              1.0000000000
       433        87  DCM       H2             -7.9846759995       -0.4100630306        1.8007280013  CLST      87              1.0000000000
       434        87  DCM       CL1            -9.1524119654       -2.0888860558        0.5638022277  CLST      87              1.0000000000
       435        87  DCM       CL2            -6.3762088168       -1.2228568101        0.2333437444  CLST      87              1.0000000000
       436        88  DCM       C              -5.4220819996       -4.5874152198       -8.2820688515  CLST      88              1.0000000000
       437        88  DCM       H1             -6.4766602646       -4.5556876081       -7.9357960045  CLST      88              1.0000000000
       438        88  DCM       H2             -4.7683585603       -3.9737594323       -7.6267914659  CLST      88              1.0000000000
       439        88  DCM       CL1            -5.3337413292       -3.9509984943       -9.9491723962  CLST      88              1.0000000000
       440        88  DCM       CL2            -4.8506995787       -6.2800538543       -8.2603490165  CLST      88              1.0000000000
       441        89  DCM       C              -5.8570599131       -0.9082326986        4.6184337639  CLST      89              1.0000000000
       442        89  DCM       H1             -5.9530514772       -1.8587274474        5.1845948007  CLST      89              1.0000000000
       443        89  DCM       H2             -5.5641762256       -1.0999809789        3.5638207153  CLST      89              1.0000000000
       444        89  DCM       CL1            -7.4273681620       -0.0619160391        4.6349544994  CLST      89              1.0000000000
       445        89  DCM       CL2            -4.6104895078        0.1100127859        5.3956285123  CLST      89              1.0000000000
       446        90  DCM       C               7.1134564456        8.0250516610        3.5642562381  CLST      90              1.0000000000
       447        90  DCM       H1              7.9046078835        7.6073298996        4.2206401182  CLST      90              1.0000000000
       448        90  DCM       H2              7.5590577535        8.6043098500        2.7286835128  CLST      90              1.0000000000
       449        90  DCM       CL1             6.1412621282        6.6889640498        2.8907886326  CLST      90              1.0000000000
       450        90  DCM       CL2             6.0626080871        9.0953353094        4.5318170795  CLST      90              1.0000000000
       451        91  DCM       C              -7.1250090521       -4.7126154303       -0.6260096726  CLST      91              1.0000000000
       452        91  DCM       H1             -7.9349679655       -4.2642471327       -1.2390734577  CLST      91              1.0000000000
       453        91  DCM       H2             -7.1364258293       -4.3132408999        0.4085691048  CLST      91              1.0000000000
       454        91  DCM       CL1            -7.3500762673       -6.4835248662       -0.5657502594  CLST      91              1.0000000000
       455        91  DCM       CL2            -5.5508164053       -4.3206369517       -1.3698621946  CLST      91              1.0000000000
       456        92  DCM       C               5.7545464193       -4.3635176977       -3.4196583312  CLST      92              1.0000000000
       457        92  DCM       H1              5.1695537717       -4.9701373086       -2.6991505796  CLST      92              1.0000000000
       458        92  DCM       H2              5.0917886564       -3.8050732403       -4.1135076367  CLST      92              1.0000000000
       459        92  DCM       CL1             6.7489480573       -3.2014257089       -2.5016620532  CLST      92              1.0000000000
       460        92  DCM       CL2             6.8051423216       -5.4483798339       -4.3716572867  CLST      92              1.0000000000
       461        93  DCM       C             -12.9188990360        6.7961086004       -8.2607125930  CLST      93              1.0000000000
       462        93  DCM       H1            -13.6449428430        7.5156479229       -7.8266148964  CLST      93              1.0000000000
       463        93  DCM       H2            -12.6714435107        7.0610402713       -9.3103688846  CLST      93              1.0000000000
       464        93  DCM       CL1           -11.4218279320        6.8202115193       -7.2860391530  CLST      93              1.0000000000
       465        93  DCM       CL2           -13.6333443065        5.1584574542       -8.2294230285  CLST      93              1.0000000000
       466        94  DCM       C               8.9390593232       -3.4254827243       -6.6913179057  CLST      94              1.0000000000
       467        94  DCM       H1              9.6604090175       -4.2637110462       -6.7833175136  CLST      94              1.0000000000
       468        94  DCM       H2              8.6838897063       -3.2328315146       -5.6279045180  CLST      94              1.0000000000
       469        94  DCM       CL1             9.6715843962       -1.9542913098       -7.3922279246  CLST      94              1.0000000000
       470        94  DCM       CL2             7.4454147308       -3.8401900902       -7.5804736451  CLST      94              1.0000000000
       471        95  DCM       C              -0.9482730322       -5.6833396109       -7.2121468637  CLST      95              1.0000000000
       472        95  DCM       H1             -0.9571838931       -6.7833316926       -7.0609823327  CLST      95              1.0000000000
       473        95  DCM       H2             -1.1193540249       -5.4247332426       -8.2786499391  CLST      95              1.0000000000
       474        95  DCM       CL1            -2.2438759951       -4.9535958946       -6.2239590506  CLST      95              1.0000000000
       475        95  DCM       CL2             0.6368823991       -5.0361862153       -6.6990027029  CLST      95              1.0000000000
