* PRE_MLPOT:MONOMER_REPACK
*  DATE:     6/28/26      2: 1:42      CREATED BY USER: boittier
*
       460  EXT
         1         1  DCM       C              -0.1300695369        2.1446504565        1.7522914670  CLST      1               1.0000000000
         2         1  DCM       H1             -0.7857583642        1.6437911434        1.0076875371  CLST      1               1.0000000000
         3         1  DCM       H2              0.9400107113        1.9507414870        1.5351143040  CLST      1               1.0000000000
         4         1  DCM       CL1            -0.4212476501        3.9074128637        1.6974767928  CLST      1               1.0000000000
         5         1  DCM       CL2            -0.5142749671        1.5175891201        3.3820002670  CLST      1               1.0000000000
         6         2  DCM       C              -1.2825816022       -0.0077245746       -0.1868558566  CLST      2               1.0000000000
         7         2  DCM       H1             -0.3867529522        0.6257540653       -0.0149154756  CLST      2               1.0000000000
         8         2  DCM       H2             -0.9939452435       -1.0314671010       -0.5062169391  CLST      2               1.0000000000
         9         2  DCM       CL1            -2.2180886773       -0.1153357225        1.3331412791  CLST      2               1.0000000000
        10         2  DCM       CL2            -2.2858294779        0.7388079859       -1.4650518380  CLST      2               1.0000000000
        11         3  DCM       C               2.2592424751       -1.6617212141        1.9317301600  CLST      3               1.0000000000
        12         3  DCM       H1              1.7761145526       -1.1340823182        1.0833024384  CLST      3               1.0000000000
        13         3  DCM       H2              2.5335247066       -0.9515656746        2.7399553037  CLST      3               1.0000000000
        14         3  DCM       CL1             1.1213563299       -2.8752901104        2.5840071764  CLST      3               1.0000000000
        15         3  DCM       CL2             3.7379185080       -2.4728950269        1.3394632467  CLST      3               1.0000000000
        16         4  DCM       C              -2.1555975371        0.2708541163       -0.3998785001  CLST      4               1.0000000000
        17         4  DCM       H1             -2.6989001648        0.7017575818       -1.2686857869  CLST      4               1.0000000000
        18         4  DCM       H2             -2.8206460533       -0.3826056030        0.2014703786  CLST      4               1.0000000000
        19         4  DCM       CL1            -0.7757755809       -0.6937534430       -1.0015964876  CLST      4               1.0000000000
        20         4  DCM       CL2            -1.5604756521        1.6019653315        0.6354482290  CLST      4               1.0000000000
        21         5  DCM       C              -1.2598174199       -3.1448372513       -1.7888004396  CLST      5               1.0000000000
        22         5  DCM       H1             -1.7600113560       -3.3041570254       -2.7678104951  CLST      5               1.0000000000
        23         5  DCM       H2             -1.9425597806       -3.3874639446       -0.9475841424  CLST      5               1.0000000000
        24         5  DCM       CL1            -0.7708502962       -1.4302281851       -1.6573633721  CLST      5               1.0000000000
        25         5  DCM       CL2             0.1801982977       -4.2008200515       -1.6895053714  CLST      5               1.0000000000
        26         6  DCM       C              -0.4419418817       -1.9928184928        0.5604915408  CLST      6               1.0000000000
        27         6  DCM       H1             -1.5325334204       -1.7827238641        0.5918632144  CLST      6               1.0000000000
        28         6  DCM       H2             -0.1325674293       -2.6302882334        1.4151366273  CLST      6               1.0000000000
        29         6  DCM       CL1            -0.0555032426       -2.8413560547       -0.9633429574  CLST      6               1.0000000000
        30         6  DCM       CL2             0.4441789030       -0.4427420420        0.6316936720  CLST      6               1.0000000000
        31         7  DCM       C               2.5195128823        1.8460958800       -0.1297142796  CLST      7               1.0000000000
        32         7  DCM       H1              2.1029025900        1.9648045978       -1.1512676670  CLST      7               1.0000000000
        33         7  DCM       H2              1.7287389628        1.9820081212        0.6358893210  CLST      7               1.0000000000
        34         7  DCM       CL1             3.2214385677        0.2124363478        0.0390772900  CLST      7               1.0000000000
        35         7  DCM       CL2             3.7837616729        3.0754315243        0.1308366931  CLST      7               1.0000000000
        36         8  DCM       C               2.1949923177       -0.1653982580        1.0861163064  CLST      8               1.0000000000
        37         8  DCM       H1              2.9536921547       -0.8849342795        0.7126726701  CLST      8               1.0000000000
        38         8  DCM       H2              2.1466514621        0.7364199781        0.4398762567  CLST      8               1.0000000000
        39         8  DCM       CL1             2.6344844219        0.3278792043        2.7447149801  CLST      8               1.0000000000
        40         8  DCM       CL2             0.5959760353       -0.9622343635        1.0967775494  CLST      8               1.0000000000
        41         9  DCM       C               0.5215218164        1.3059117675        1.0810853415  CLST      9               1.0000000000
        42         9  DCM       H1              0.0751598593        0.3281846469        1.3690178861  CLST      9               1.0000000000
        43         9  DCM       H2             -0.2612709610        2.0855933759        0.9843372395  CLST      9               1.0000000000
        44         9  DCM       CL1             1.6896224354        1.8016155536        2.3357729959  CLST      9               1.0000000000
        45         9  DCM       CL2             1.3643798858        1.1258659796       -0.4818724044  CLST      9               1.0000000000
        46        10  DCM       C               0.7894315275       -0.2551811333        0.8882863938  CLST      10              1.0000000000
        47        10  DCM       H1             -0.0526402129        0.0602052375        0.2385773014  CLST      10              1.0000000000
        48        10  DCM       H2              0.4812279228       -1.0884521553        1.5548547236  CLST      10              1.0000000000
        49        10  DCM       CL1             2.1509905736       -0.7953810089       -0.1354068545  CLST      10              1.0000000000
        50        10  DCM       CL2             1.2998725760        1.1387652841        1.8815202753  CLST      10              1.0000000000
        51        11  DCM       C              -0.2856559881       -1.8179863494       -2.1491466360  CLST      11              1.0000000000
        52        11  DCM       H1             -0.2411855603       -1.0826353669       -2.9783558328  CLST      11              1.0000000000
        53        11  DCM       H2             -0.1039552194       -2.8479485462       -2.5194997454  CLST      11              1.0000000000
        54        11  DCM       CL1            -1.9027380914       -1.7507800873       -1.3937375180  CLST      11              1.0000000000
        55        11  DCM       CL2             0.9616673399       -1.4068563926       -0.9389082634  CLST      11              1.0000000000
        56        12  DCM       C              -2.0528666283       -2.7553891989       -0.9363113378  CLST      12              1.0000000000
        57        12  DCM       H1             -1.3696907931       -2.5100461917       -0.0960391971  CLST      12              1.0000000000
        58        12  DCM       H2             -1.5942686222       -3.5070547882       -1.6133712220  CLST      12              1.0000000000
        59        12  DCM       CL1            -3.5766332438       -3.4154209989       -0.2741371127  CLST      12              1.0000000000
        60        12  DCM       CL2            -2.3911124288       -1.2651088561       -1.8639385999  CLST      12              1.0000000000
        61        13  DCM       C               0.8544564152       -1.1829331234       -0.1803148285  CLST      13              1.0000000000
        62        13  DCM       H1              0.6840254753       -1.4008932147        0.8952789083  CLST      13              1.0000000000
        63        13  DCM       H2              0.4333446851       -0.1940833397       -0.4581300344  CLST      13              1.0000000000
        64        13  DCM       CL1             2.6107828053       -1.1730670247       -0.5024603716  CLST      13              1.0000000000
        65        13  DCM       CL2             0.0641484935       -2.4486952690       -1.1622421969  CLST      13              1.0000000000
        66        14  DCM       C               2.0215891206       -2.9152997233        1.3571748353  CLST      14              1.0000000000
        67        14  DCM       H1              2.2540805055       -2.0484506460        2.0074599681  CLST      14              1.0000000000
        68        14  DCM       H2              2.6996202409       -3.7673297170        1.5730082125  CLST      14              1.0000000000
        69        14  DCM       CL1             0.3350753291       -3.4269882721        1.6536283172  CLST      14              1.0000000000
        70        14  DCM       CL2             2.2182783648       -2.4254755300       -0.3506011181  CLST      14              1.0000000000
        71        15  DCM       C              -2.0840570848       -0.8792459837       -2.0772879929  CLST      15              1.0000000000
        72        15  DCM       H1             -0.9961782956       -1.1086637065       -2.1251260954  CLST      15              1.0000000000
        73        15  DCM       H2             -2.6839602137       -1.8094302238       -2.0521503065  CLST      15              1.0000000000
        74        15  DCM       CL1            -2.4166238674        0.0656320377       -0.5988108315  CLST      15              1.0000000000
        75        15  DCM       CL2            -2.5470163329        0.0708953058       -3.5189955191  CLST      15              1.0000000000
        76        16  DCM       C              -1.5198865064        1.1776931154       -1.9831919381  CLST      16              1.0000000000
        77        16  DCM       H1             -0.7026954421        1.9078978898       -2.1642009095  CLST      16              1.0000000000
        78        16  DCM       H2             -2.0852226888        1.4354056224       -1.0644659230  CLST      16              1.0000000000
        79        16  DCM       CL1            -2.6441621939        1.1869275217       -3.3717845263  CLST      16              1.0000000000
        80        16  DCM       CL2            -0.8105891443       -0.4484765255       -1.7946178046  CLST      16              1.0000000000
        81        17  DCM       C              -1.7689667399        0.0515081737       -2.1425037912  CLST      17              1.0000000000
        82        17  DCM       H1             -0.7655602022        0.5266518704       -2.1160989860  CLST      17              1.0000000000
        83        17  DCM       H2             -2.0236623998       -0.3977602260       -1.1596419204  CLST      17              1.0000000000
        84        17  DCM       CL1            -2.9912791200        1.2910994058       -2.5469457626  CLST      17              1.0000000000
        85        17  DCM       CL2            -1.7726137423       -1.2314427048       -3.3865513903  CLST      17              1.0000000000
        86        18  DCM       C               0.3064916279       -0.0146281600       -2.8249394923  CLST      18              1.0000000000
        87        18  DCM       H1              0.9918940115       -0.7337566678       -3.3179845016  CLST      18              1.0000000000
        88        18  DCM       H2              0.3802748764        0.9846284272       -3.2982622470  CLST      18              1.0000000000
        89        18  DCM       CL1            -1.3711934546       -0.6012061228       -2.9764998514  CLST      18              1.0000000000
        90        18  DCM       CL2             0.7465624319        0.1169071977       -1.1003803298  CLST      18              1.0000000000
        91        19  DCM       C               3.3349144046       -0.4158154836        2.0107104159  CLST      19              1.0000000000
        92        19  DCM       H1              4.3854435893       -0.3385165929        2.3640822018  CLST      19              1.0000000000
        93        19  DCM       H2              3.2951094663       -0.6147919775        0.9194203432  CLST      19              1.0000000000
        94        19  DCM       CL1             2.4906693474        1.1224901718        2.3545666569  CLST      19              1.0000000000
        95        19  DCM       CL2             2.5308844304       -1.7570437278        2.8773004549  CLST      19              1.0000000000
        96        20  DCM       C              -2.6840511155        2.2224558080       -2.0662005726  CLST      20              1.0000000000
        97        20  DCM       H1             -3.3081948003        1.3749332134       -1.7130953202  CLST      20              1.0000000000
        98        20  DCM       H2             -1.9122102460        1.8780425387       -2.7838068708  CLST      20              1.0000000000
        99        20  DCM       CL1            -3.7385912738        3.4154839298       -2.8773831075  CLST      20              1.0000000000
       100        20  DCM       CL2            -1.8761792766        2.9776645227       -0.6616433484  CLST      20              1.0000000000
       101        21  DCM       C               2.2550049123       -1.6483646856        2.5762084615  CLST      21              1.0000000000
       102        21  DCM       H1              2.6898947027       -0.9429490587        1.8372745296  CLST      21              1.0000000000
       103        21  DCM       H2              2.9233481099       -2.5219691106        2.7318127977  CLST      21              1.0000000000
       104        21  DCM       CL1             2.0343054386       -0.8004043395        4.1340642537  CLST      21              1.0000000000
       105        21  DCM       CL2             0.6736869055       -2.2237670825        1.9717712642  CLST      21              1.0000000000
       106        22  DCM       C              -1.9389272250       -1.1608927965        0.4509789923  CLST      22              1.0000000000
       107        22  DCM       H1             -1.0147972546       -1.7665493950        0.5651238015  CLST      22              1.0000000000
       108        22  DCM       H2             -1.9434909779       -0.6212819918       -0.5202234686  CLST      22              1.0000000000
       109        22  DCM       CL1            -2.0280332932        0.0337077493        1.7768288794  CLST      22              1.0000000000
       110        22  DCM       CL2            -3.3564679377       -2.2457421025        0.5241181974  CLST      22              1.0000000000
       111        23  DCM       C               2.1923959949       -2.1253007880       -3.2648680830  CLST      23              1.0000000000
       112        23  DCM       H1              2.4211918180       -3.1617517960       -2.9374390320  CLST      23              1.0000000000
       113        23  DCM       H2              1.8003278609       -2.1127101244       -4.3036044832  CLST      23              1.0000000000
       114        23  DCM       CL1             0.9590364505       -1.4272301019       -2.1761638070  CLST      23              1.0000000000
       115        23  DCM       CL2             3.6866293387       -1.1469570805       -3.1934508795  CLST      23              1.0000000000
       116        24  DCM       C              -2.3040820269        1.9848360242        2.7947478818  CLST      24              1.0000000000
       117        24  DCM       H1             -1.2911032339        2.3801841419        3.0383747140  CLST      24              1.0000000000
       118        24  DCM       H2             -2.8965101626        1.8097975011        3.7137762253  CLST      24              1.0000000000
       119        24  DCM       CL1            -3.1599987254        3.1766721234        1.7740669539  CLST      24              1.0000000000
       120        24  DCM       CL2            -2.1344763988        0.4384273713        1.9128413465  CLST      24              1.0000000000
       121        25  DCM       C              -0.5725433841       -1.2545454189        0.7583108911  CLST      25              1.0000000000
       122        25  DCM       H1             -1.0627331760       -0.2579108676        0.7463985661  CLST      25              1.0000000000
       123        25  DCM       H2              0.2853119109       -1.2843304391        0.0543929047  CLST      25              1.0000000000
       124        25  DCM       CL1             0.0193610418       -1.5920265899        2.4097682692  CLST      25              1.0000000000
       125        25  DCM       CL2            -1.7609162367       -2.4994980749        0.2773238387  CLST      25              1.0000000000
       126        26  DCM       C               1.6458876526       -2.6984509818       -0.2418202200  CLST      26              1.0000000000
       127        26  DCM       H1              2.7444915271       -2.5670260872       -0.1597516904  CLST      26              1.0000000000
       128        26  DCM       H2              1.1281713524       -1.7163100410       -0.2436233479  CLST      26              1.0000000000
       129        26  DCM       CL1             1.2748383118       -3.5588214683       -1.7634617866  CLST      26              1.0000000000
       130        26  DCM       CL2             1.0698604548       -3.6575229851        1.1513788476  CLST      26              1.0000000000
       131        27  DCM       C               1.0801363119        2.3891114156        2.4409416681  CLST      27              1.0000000000
       132        27  DCM       H1              0.3739940084        2.6170476603        3.2636552085  CLST      27              1.0000000000
       133        27  DCM       H2              1.7309888143        1.5249149117        2.6980783980  CLST      27              1.0000000000
       134        27  DCM       CL1             0.1439555561        1.9826313045        0.9788073852  CLST      27              1.0000000000
       135        27  DCM       CL2             2.1009417845        3.8214323390        2.1318898887  CLST      27              1.0000000000
       136        28  DCM       C               3.1788735551        1.4022396429        1.6493103150  CLST      28              1.0000000000
       137        28  DCM       H1              4.1714673446        1.1835720848        1.2045505295  CLST      28              1.0000000000
       138        28  DCM       H2              2.9336902985        0.6774835206        2.4569058792  CLST      28              1.0000000000
       139        28  DCM       CL1             3.2152736090        3.0523701014        2.3271160161  CLST      28              1.0000000000
       140        28  DCM       CL2             1.9303612911        1.2944015810        0.3727012906  CLST      28              1.0000000000
       141        29  DCM       C              -2.4430155972        0.9438554953       -1.5830041618  CLST      29              1.0000000000
       142        29  DCM       H1             -2.7138189515       -0.1328130733       -1.6320619936  CLST      29              1.0000000000
       143        29  DCM       H2             -1.3415208719        1.0753564341       -1.5661935075  CLST      29              1.0000000000
       144        29  DCM       CL1            -3.1067855684        1.7707940055       -3.0194500226  CLST      29              1.0000000000
       145        29  DCM       CL2            -3.1338137470        1.6591936820       -0.0975517058  CLST      29              1.0000000000
       146        30  DCM       C               0.8878499693        1.1259291888       -0.0451168259  CLST      30              1.0000000000
       147        30  DCM       H1              1.3486265914        0.2584242772        0.4736331515  CLST      30              1.0000000000
       148        30  DCM       H2              1.5208322101        2.0329688294        0.0594987941  CLST      30              1.0000000000
       149        30  DCM       CL1             0.7012697310        0.7388819967       -1.7808337910  CLST      30              1.0000000000
       150        30  DCM       CL2            -0.7148190924        1.4502022799        0.6758472439  CLST      30              1.0000000000
       151        31  DCM       C               0.9179027720       -2.6638494162        1.5663465093  CLST      31              1.0000000000
       152        31  DCM       H1              0.1488662688       -2.0924487082        2.1256744352  CLST      31              1.0000000000
       153        31  DCM       H2              1.5641395428       -1.9843709846        0.9708725444  CLST      31              1.0000000000
       154        31  DCM       CL1             1.9322289453       -3.5639734411        2.7319168172  CLST      31              1.0000000000
       155        31  DCM       CL2             0.0990072640       -3.8051628224        0.4617075053  CLST      31              1.0000000000
       156        32  DCM       C               2.2452399925        2.7804551239        2.9791106694  CLST      32              1.0000000000
       157        32  DCM       H1              2.7802800526        3.4749224719        3.6609906314  CLST      32              1.0000000000
       158        32  DCM       H2              2.5745544695        2.9196347082        1.9271827084  CLST      32              1.0000000000
       159        32  DCM       CL1             2.5850350789        1.0974110306        3.4779656296  CLST      32              1.0000000000
       160        32  DCM       CL2             0.4895402678        3.0994688636        3.0856967409  CLST      32              1.0000000000
       161        33  DCM       C              -0.7924924242       -2.6579813323       -2.4104938778  CLST      33              1.0000000000
       162        33  DCM       H1             -1.6218012043       -2.0621284760       -2.8459547434  CLST      33              1.0000000000
       163        33  DCM       H2              0.1631235150       -2.0945175930       -2.4476464154  CLST      33              1.0000000000
       164        33  DCM       CL1            -1.1803703657       -3.0406202938       -0.7080159504  CLST      33              1.0000000000
       165        33  DCM       CL2            -0.6140899849       -4.1719791618       -3.3425917677  CLST      33              1.0000000000
       166        34  DCM       C              -3.0353017128        1.1322313745       -1.3309180167  CLST      34              1.0000000000
       167        34  DCM       H1             -3.8540298214        1.1820274506       -2.0790046008  CLST      34              1.0000000000
       168        34  DCM       H2             -3.2938679034        1.7027737927       -0.4154555804  CLST      34              1.0000000000
       169        34  DCM       CL1            -2.7667795233       -0.5696970458       -0.8757256038  CLST      34              1.0000000000
       170        34  DCM       CL2            -1.5441879207        1.8088624605       -2.0435102457  CLST      34              1.0000000000
       171        35  DCM       C              -1.2428023669        2.3872142973        1.5412647124  CLST      35              1.0000000000
       172        35  DCM       H1             -2.0692674904        2.5238080414        0.8148501403  CLST      35              1.0000000000
       173        35  DCM       H2             -1.2638708643        3.1760350764        2.3230654104  CLST      35              1.0000000000
       174        35  DCM       CL1            -1.4201232230        0.7864377233        2.3172629962  CLST      35              1.0000000000
       175        35  DCM       CL2             0.3143019135        2.4710566203        0.6658560073  CLST      35              1.0000000000
       176        36  DCM       C               0.5003820085        1.8460191977       -2.5124767328  CLST      36              1.0000000000
       177        36  DCM       H1              0.5037757525        2.7704339315       -1.8985710679  CLST      36              1.0000000000
       178        36  DCM       H2              1.2860535653        1.1377996392       -2.1764912151  CLST      36              1.0000000000
       179        36  DCM       CL1            -1.0882370368        1.0485015874       -2.3501233364  CLST      36              1.0000000000
       180        36  DCM       CL2             0.8025229099        2.2746721605       -4.2207064314  CLST      36              1.0000000000
       181        37  DCM       C               0.6658390711       -0.9874459191       -1.2542873266  CLST      37              1.0000000000
       182        37  DCM       H1              0.6845474996       -2.0817737446       -1.4355328664  CLST      37              1.0000000000
       183        37  DCM       H2             -0.0614238962       -0.4846325415       -1.9247654954  CLST      37              1.0000000000
       184        37  DCM       CL1             2.2930581959       -0.3264081629       -1.5655344248  CLST      37              1.0000000000
       185        37  DCM       CL2             0.2063273972       -0.6837949207        0.4456330592  CLST      37              1.0000000000
       186        38  DCM       C              -3.1561219649       -1.1279516734        1.2712050116  CLST      38              1.0000000000
       187        38  DCM       H1             -3.9088538293       -0.3116973704        1.2931893336  CLST      38              1.0000000000
       188        38  DCM       H2             -3.4262761645       -1.9419721231        1.9758631498  CLST      38              1.0000000000
       189        38  DCM       CL1            -1.5615940958       -0.4663825194        1.7314982307  CLST      38              1.0000000000
       190        38  DCM       CL2            -3.0761893469       -1.7995687473       -0.3811241550  CLST      38              1.0000000000
       191        39  DCM       C              -2.4323304569       -0.8468280694       -3.1017535507  CLST      39              1.0000000000
       192        39  DCM       H1             -3.3230604148       -0.8497983136       -3.7683414903  CLST      39              1.0000000000
       193        39  DCM       H2             -2.0865636978        0.1923206991       -2.9117119756  CLST      39              1.0000000000
       194        39  DCM       CL1            -2.8729772074       -1.6093879768       -1.5484013718  CLST      39              1.0000000000
       195        39  DCM       CL2            -1.1121840503       -1.7678384817       -3.8804402764  CLST      39              1.0000000000
       196        40  DCM       C               1.8350523978       -0.1861295182       -1.3957013398  CLST      40              1.0000000000
       197        40  DCM       H1              2.8095204593       -0.7137345032       -1.4602184028  CLST      40              1.0000000000
       198        40  DCM       H2              1.1644248150       -0.4870100419       -2.2262621268  CLST      40              1.0000000000
       199        40  DCM       CL1             1.0464734680       -0.5970285284        0.1530937741  CLST      40              1.0000000000
       200        40  DCM       CL2             2.1203991874        1.5748907456       -1.4856891023  CLST      40              1.0000000000
       201        41  DCM       C              -1.4195938946        2.4985443473       -0.5578318059  CLST      41              1.0000000000
       202        41  DCM       H1             -0.8005818821        2.0161273805       -1.3404855869  CLST      41              1.0000000000
       203        41  DCM       H2             -1.5472433449        1.8323848084        0.3186028821  CLST      41              1.0000000000
       204        41  DCM       CL1            -0.6116010705        4.0049143900       -0.0396792635  CLST      41              1.0000000000
       205        41  DCM       CL2            -3.0302521040        2.8540396318       -1.2390288486  CLST      41              1.0000000000
       206        42  DCM       C               0.6637954482        1.5215766033       -1.2050825917  CLST      42              1.0000000000
       207        42  DCM       H1              1.0104498646        2.0026642348       -2.1450421166  CLST      42              1.0000000000
       208        42  DCM       H2              1.4261354039        0.8163183786       -0.8134529836  CLST      42              1.0000000000
       209        42  DCM       CL1            -0.8415521167        0.6175226967       -1.5328782485  CLST      42              1.0000000000
       210        42  DCM       CL2             0.3566086952        2.7864359224        0.0200760286  CLST      42              1.0000000000
       211        43  DCM       C               1.8296378228        2.8416550654        2.1385087672  CLST      43              1.0000000000
       212        43  DCM       H1              1.3666530631        1.8312327080        2.1201153018  CLST      43              1.0000000000
       213        43  DCM       H2              1.2216123032        3.5724816507        1.5647555447  CLST      43              1.0000000000
       214        43  DCM       CL1             1.9462029176        3.3984129020        3.8272392067  CLST      43              1.0000000000
       215        43  DCM       CL2             3.4608688701        2.7552678690        1.4200398335  CLST      43              1.0000000000
       216        44  DCM       C               2.8608942535        2.5001868578       -2.1085207075  CLST      44              1.0000000000
       217        44  DCM       H1              2.9812007861        2.3136612377       -1.0202537478  CLST      44              1.0000000000
       218        44  DCM       H2              3.6886127047        2.0408367468       -2.6864017964  CLST      44              1.0000000000
       219        44  DCM       CL1             1.3139679353        1.7949250089       -2.6575973435  CLST      44              1.0000000000
       220        44  DCM       CL2             2.8603991871        4.2624532073       -2.4010553821  CLST      44              1.0000000000
       221        45  DCM       C              -0.2277419078        2.2871988928       -1.5323405186  CLST      45              1.0000000000
       222        45  DCM       H1             -1.0965721528        1.6413322951       -1.2873804234  CLST      45              1.0000000000
       223        45  DCM       H2             -0.3248912669        2.7162767732       -2.5521727399  CLST      45              1.0000000000
       224        45  DCM       CL1            -0.1431340372        3.6215953424       -0.3456258308  CLST      45              1.0000000000
       225        45  DCM       CL2             1.2674856311        1.3113541252       -1.4532972007  CLST      45              1.0000000000
       226        46  DCM       C               2.4317332028        1.9522217926       -0.7906009562  CLST      46              1.0000000000
       227        46  DCM       H1              1.7706347109        1.3588347107       -1.4582707511  CLST      46              1.0000000000
       228        46  DCM       H2              1.9251073423        2.8766081720       -0.4433486252  CLST      46              1.0000000000
       229        46  DCM       CL1             2.8795583084        0.9605021759        0.6261482251  CLST      46              1.0000000000
       230        46  DCM       CL2             3.9048211986        2.4045618783       -1.6898403862  CLST      46              1.0000000000
       231        47  DCM       C              -0.6066189245       -0.0045799347       -1.1796591058  CLST      47              1.0000000000
       232        47  DCM       H1             -1.6258009496       -0.1617755314       -0.7688477807  CLST      47              1.0000000000
       233        47  DCM       H2              0.1334896829        0.1305272825       -0.3643882642  CLST      47              1.0000000000
       234        47  DCM       CL1            -0.1497967598       -1.4347455918       -2.1471249909  CLST      47              1.0000000000
       235        47  DCM       CL2            -0.6028913185        1.4583603115       -2.2053278137  CLST      47              1.0000000000
       236        48  DCM       C              -0.0670549444        0.9174802671        3.2014908710  CLST      48              1.0000000000
       237        48  DCM       H1             -0.4183301448        0.0562085014        3.8069920868  CLST      48              1.0000000000
       238        48  DCM       H2             -0.8147859031        1.1949184498        2.4295647768  CLST      48              1.0000000000
       239        48  DCM       CL1             0.1987391323        2.3174318024        4.2813611054  CLST      48              1.0000000000
       240        48  DCM       CL2             1.4659785969        0.4748931878        2.3952841197  CLST      48              1.0000000000
       241        49  DCM       C               0.3598812994        1.5411944763       -1.6288827864  CLST      49              1.0000000000
       242        49  DCM       H1             -0.1860443798        0.6421438020       -1.2738627237  CLST      49              1.0000000000
       243        49  DCM       H2              0.8453697373        2.0711844156       -0.7837125076  CLST      49              1.0000000000
       244        49  DCM       CL1            -0.7957711176        2.6528532348       -2.4181471793  CLST      49              1.0000000000
       245        49  DCM       CL2             1.6147887006        1.0363036075       -2.7988742328  CLST      49              1.0000000000
       246        50  DCM       C              -2.3533498100       -2.3026512786        1.7485088437  CLST      50              1.0000000000
       247        50  DCM       H1             -2.4209636609       -2.1254913214        0.6551824594  CLST      50              1.0000000000
       248        50  DCM       H2             -1.8760896743       -3.2814455502        1.9645286840  CLST      50              1.0000000000
       249        50  DCM       CL1            -1.3783974969       -1.0017861818        2.4904123003  CLST      50              1.0000000000
       250        50  DCM       CL2            -4.0017696038       -2.2934684343        2.4360497198  CLST      50              1.0000000000
       251        51  DCM       C              -3.3417051533        2.0376555164        1.0049480586  CLST      51              1.0000000000
       252        51  DCM       H1             -3.0321042094        2.7496427859        1.7990079037  CLST      51              1.0000000000
       253        51  DCM       H2             -2.9732482128        1.0123363853        1.2241119880  CLST      51              1.0000000000
       254        51  DCM       CL1            -5.1268058095        2.0056850124        0.9112708670  CLST      51              1.0000000000
       255        51  DCM       CL2            -2.6595205849        2.5817694870       -0.5548840194  CLST      51              1.0000000000
       256        52  DCM       C              -2.3813267537        2.6392396404       -1.1032507037  CLST      52              1.0000000000
       257        52  DCM       H1             -3.2037436881        1.8935039384       -1.1156254656  CLST      52              1.0000000000
       258        52  DCM       H2             -1.6679782890        2.4291128782       -0.2803224705  CLST      52              1.0000000000
       259        52  DCM       CL1            -3.0748519878        4.2696097821       -0.8715219841  CLST      52              1.0000000000
       260        52  DCM       CL2            -1.5094446048        2.5701839354       -2.6618061507  CLST      52              1.0000000000
       261        53  DCM       C               2.9753357919        0.1989372619       -0.3046116310  CLST      53              1.0000000000
       262        53  DCM       H1              2.0235420610       -0.1983704951        0.1080905967  CLST      53              1.0000000000
       263        53  DCM       H2              3.8156155213        0.0410748001        0.4036416512  CLST      53              1.0000000000
       264        53  DCM       CL1             2.7892958308        1.9517760093       -0.6045201683  CLST      53              1.0000000000
       265        53  DCM       CL2             3.3410528323       -0.6466731239       -1.8370989325  CLST      53              1.0000000000
       266        54  DCM       C               0.9995444377       -0.9079613026        0.6854008470  CLST      54              1.0000000000
       267        54  DCM       H1              0.4923997203       -0.7117697871        1.6521012182  CLST      54              1.0000000000
       268        54  DCM       H2              1.9772386444       -0.3842609359        0.6371239762  CLST      54              1.0000000000
       269        54  DCM       CL1             1.2651225825       -2.6675477158        0.5179799130  CLST      54              1.0000000000
       270        54  DCM       CL2            -0.0431649219       -0.3244261811       -0.6433812399  CLST      54              1.0000000000
       271        55  DCM       C              -0.6385312549       -1.6228738402        0.4949542329  CLST      55              1.0000000000
       272        55  DCM       H1             -1.4662709315       -2.3382422262        0.6941289916  CLST      55              1.0000000000
       273        55  DCM       H2              0.1368743780       -1.6811224857        1.2853055476  CLST      55              1.0000000000
       274        55  DCM       CL1            -1.3054327097        0.0335347261        0.4465990805  CLST      55              1.0000000000
       275        55  DCM       CL2             0.1024498632       -2.0177306493       -1.0810061165  CLST      55              1.0000000000
       276        56  DCM       C              -0.0929976216       -2.6641279554        0.8648221571  CLST      56              1.0000000000
       277        56  DCM       H1             -0.3474811638       -2.2442551487       -0.1307476247  CLST      56              1.0000000000
       278        56  DCM       H2             -0.6859716297       -3.5786508387        1.0724084221  CLST      56              1.0000000000
       279        56  DCM       CL1             1.6437854438       -3.0831185483        0.8938066419  CLST      56              1.0000000000
       280        56  DCM       CL2            -0.4496620630       -1.4442526938        2.1200435745  CLST      56              1.0000000000
       281        57  DCM       C               2.2834952474        0.6717878588        1.5325613122  CLST      57              1.0000000000
       282        57  DCM       H1              2.6071895306        0.2282024218        0.5673943569  CLST      57              1.0000000000
       283        57  DCM       H2              1.9564923684       -0.1136439222        2.2462151319  CLST      57              1.0000000000
       284        57  DCM       CL1             3.6534079184        1.5721721386        2.2447749011  CLST      57              1.0000000000
       285        57  DCM       CL2             0.9195184531        1.7856001513        1.2289556026  CLST      57              1.0000000000
       286        58  DCM       C              -1.3705355320       -3.7423317815        0.0653817701  CLST      58              1.0000000000
       287        58  DCM       H1             -1.2607013666       -4.6116397990       -0.6141182580  CLST      58              1.0000000000
       288        58  DCM       H2             -1.3000592320       -2.7854062003       -0.4935706468  CLST      58              1.0000000000
       289        58  DCM       CL1            -2.9677572101       -3.8292928054        0.8642359498  CLST      58              1.0000000000
       290        58  DCM       CL2            -0.0730551177       -3.7974834004        1.2951314248  CLST      58              1.0000000000
       291        59  DCM       C              -2.6307301968       -1.7348517695       -0.8757126268  CLST      59              1.0000000000
       292        59  DCM       H1             -3.6311064621       -1.3239535170       -1.1275102738  CLST      59              1.0000000000
       293        59  DCM       H2             -2.6094661093       -2.1223198680        0.1642382946  CLST      59              1.0000000000
       294        59  DCM       CL1            -2.2491265686       -3.0715144277       -1.9977349166  CLST      59              1.0000000000
       295        59  DCM       CL2            -1.4077555219       -0.4417584795       -1.0362325527  CLST      59              1.0000000000
       296        60  DCM       C               1.5529317564       -1.9980155129        2.3395147755  CLST      60              1.0000000000
       297        60  DCM       H1              1.2488582797       -2.9007676055        1.7673756058  CLST      60              1.0000000000
       298        60  DCM       H2              1.1665767239       -1.0725194313        1.8622699297  CLST      60              1.0000000000
       299        60  DCM       CL1             0.9015717688       -2.1098313999        3.9989939723  CLST      60              1.0000000000
       300        60  DCM       CL2             3.3357717011       -1.9167324692        2.3978454613  CLST      60              1.0000000000
       301        61  DCM       C              -1.2375352288       -2.0082147170        2.7758992836  CLST      61              1.0000000000
       302        61  DCM       H1             -0.9035793043       -0.9819964082        2.5196230841  CLST      61              1.0000000000
       303        61  DCM       H2             -2.1168044911       -2.3059221091        2.1670867760  CLST      61              1.0000000000
       304        61  DCM       CL1             0.1001991932       -3.1545660909        2.4650391274  CLST      61              1.0000000000
       305        61  DCM       CL2            -1.6933091736       -2.0622829622        4.5024672876  CLST      61              1.0000000000
       306        62  DCM       C              -1.5465936536       -0.9374701531       -0.5031268221  CLST      62              1.0000000000
       307        62  DCM       H1             -0.6623873189       -0.9369737299        0.1680132739  CLST      62              1.0000000000
       308        62  DCM       H2             -2.0967365200       -1.8994241567       -0.4399086321  CLST      62              1.0000000000
       309        62  DCM       CL1            -2.6374980031        0.3935464978       -0.0201844881  CLST      62              1.0000000000
       310        62  DCM       CL2            -1.0018329890       -0.6906873017       -2.1871539032  CLST      62              1.0000000000
       311        63  DCM       C               2.5830262547        2.6215898511       -1.4229770181  CLST      63              1.0000000000
       312        63  DCM       H1              3.1143709764        2.7003006686       -2.3951399702  CLST      63              1.0000000000
       313        63  DCM       H2              2.3211374687        1.5668871607       -1.1974180695  CLST      63              1.0000000000
       314        63  DCM       CL1             3.6425019111        3.2555799046       -0.1293542472  CLST      63              1.0000000000
       315        63  DCM       CL2             1.0816446845        3.5869219458       -1.5022077878  CLST      63              1.0000000000
       316        64  DCM       C              -2.1148437203        3.2053228583       -0.1494596716  CLST      64              1.0000000000
       317        64  DCM       H1             -1.7060370649        3.7070597066       -1.0508140856  CLST      64              1.0000000000
       318        64  DCM       H2             -1.4541757870        3.3548298606        0.7300601762  CLST      64              1.0000000000
       319        64  DCM       CL1            -3.7256551601        3.8906903608        0.2122296268  CLST      64              1.0000000000
       320        64  DCM       CL2            -2.2590229708        1.4530097864       -0.4738926231  CLST      64              1.0000000000
       321        65  DCM       C              -1.8455317454        2.6868150248       -2.6204750998  CLST      65              1.0000000000
       322        65  DCM       H1             -2.5977549988        3.5022769099       -2.5695150737  CLST      65              1.0000000000
       323        65  DCM       H2             -2.3150166840        1.7300744821       -2.9324264553  CLST      65              1.0000000000
       324        65  DCM       CL1            -0.5896846028        3.1291934477       -3.8106653352  CLST      65              1.0000000000
       325        65  DCM       CL2            -1.1039733358        2.4674214774       -1.0094834158  CLST      65              1.0000000000
       326        66  DCM       C              -0.2179088017        3.9258226123       -0.0650720672  CLST      66              1.0000000000
       327        66  DCM       H1              0.2254323107        4.5803339874       -0.8427816377  CLST      66              1.0000000000
       328        66  DCM       H2             -1.2839715411        3.7092310408       -0.2844763742  CLST      66              1.0000000000
       329        66  DCM       CL1             0.6839751722        2.3857249475       -0.0126222364  CLST      66              1.0000000000
       330        66  DCM       CL2            -0.1059369544        4.7486291456        1.5149055414  CLST      66              1.0000000000
       331        67  DCM       C              -0.7569279914       -1.4614081634       -2.8773377330  CLST      67              1.0000000000
       332        67  DCM       H1             -1.3681502319       -0.8144391943       -3.5408008317  CLST      67              1.0000000000
       333        67  DCM       H2              0.2895876195       -1.0948690316       -2.8268729513  CLST      67              1.0000000000
       334        67  DCM       CL1            -1.4551387323       -1.4461821361       -1.2312502196  CLST      67              1.0000000000
       335        67  DCM       CL2            -0.7594824502       -3.1277291864       -3.5228736739  CLST      67              1.0000000000
       336        68  DCM       C              -0.0655433983        1.3720054712       -1.6169414524  CLST      68              1.0000000000
       337        68  DCM       H1              0.0110434168        2.4615195058       -1.4136581166  CLST      68              1.0000000000
       338        68  DCM       H2              0.1930171672        0.7806513207       -0.7145984111  CLST      68              1.0000000000
       339        68  DCM       CL1            -1.7389961647        0.9851280280       -2.1091711803  CLST      68              1.0000000000
       340        68  DCM       CL2             1.0631507411        0.9396594481       -2.9305399923  CLST      68              1.0000000000
       341        69  DCM       C              -2.4019031551       -2.9021423532        2.6686769077  CLST      69              1.0000000000
       342        69  DCM       H1             -2.2527667835       -3.8970525370        3.1389955973  CLST      69              1.0000000000
       343        69  DCM       H2             -2.9826849099       -2.9871549634        1.7259235019  CLST      69              1.0000000000
       344        69  DCM       CL1            -0.8050959762       -2.1873709560        2.3050831598  CLST      69              1.0000000000
       345        69  DCM       CL2            -3.2903334191       -1.8489216642        3.8069932368  CLST      69              1.0000000000
       346        70  DCM       C               0.7322988690       -1.5535241766        2.9372802330  CLST      70              1.0000000000
       347        70  DCM       H1              0.5900657606       -0.5834581824        2.4158946200  CLST      70              1.0000000000
       348        70  DCM       H2              1.8115723908       -1.7847128267        3.0618779880  CLST      70              1.0000000000
       349        70  DCM       CL1            -0.0305265668       -1.4617029944        4.5502580283  CLST      70              1.0000000000
       350        70  DCM       CL2            -0.0352697396       -2.8510090133        1.9770078930  CLST      70              1.0000000000
       351        71  DCM       C              -0.3528359477        0.6372630607        3.1003384481  CLST      71              1.0000000000
       352        71  DCM       H1             -0.0142069745        1.0878766424        2.1560221115  CLST      71              1.0000000000
       353        71  DCM       H2              0.4238650249        0.7386669467        3.9022870254  CLST      71              1.0000000000
       354        71  DCM       CL1            -1.8464381598        1.4571981806        3.6373242905  CLST      71              1.0000000000
       355        71  DCM       CL2            -0.6738910365       -1.0988005729        2.8349905243  CLST      71              1.0000000000
       356        72  DCM       C               3.3313343848       -3.3198785327       -1.3617231685  CLST      72              1.0000000000
       357        72  DCM       H1              2.4728210055       -3.9258838366       -1.7191216322  CLST      72              1.0000000000
       358        72  DCM       H2              4.0027228423       -3.9220782188       -0.7142217654  CLST      72              1.0000000000
       359        72  DCM       CL1             4.2536997677       -2.7325245524       -2.7758471107  CLST      72              1.0000000000
       360        72  DCM       CL2             2.7111647742       -1.9289218678       -0.4253511355  CLST      72              1.0000000000
       361        73  DCM       C              -1.8760686156        0.7752036754       -3.3611213253  CLST      73              1.0000000000
       362        73  DCM       H1             -1.6671237845       -0.1037080714       -4.0070625097  CLST      73              1.0000000000
       363        73  DCM       H2             -2.3756875431        1.5786937577       -3.9403667943  CLST      73              1.0000000000
       364        73  DCM       CL1            -0.3331394421        1.4011306084       -2.7133380032  CLST      73              1.0000000000
       365        73  DCM       CL2            -2.9412266797        0.2727898504       -2.0141175881  CLST      73              1.0000000000
       366        74  DCM       C               0.8193192221       -0.5495543493       -2.1867947304  CLST      74              1.0000000000
       367        74  DCM       H1              1.5149858929        0.0805718750       -2.7778836130  CLST      74              1.0000000000
       368        74  DCM       H2              1.3339469784       -0.9905150655       -1.3077958560  CLST      74              1.0000000000
       369        74  DCM       CL1            -0.5408528342        0.4571570007       -1.6140886118  CLST      74              1.0000000000
       370        74  DCM       CL2             0.2041717179       -1.8701869070       -3.2223346934  CLST      74              1.0000000000
       371        75  DCM       C               2.7634853680       -0.4165830562       -0.2552913712  CLST      75              1.0000000000
       372        75  DCM       H1              2.2730245443        0.2214770513       -1.0206144367  CLST      75              1.0000000000
       373        75  DCM       H2              3.4728065147        0.1742661548        0.3621606606  CLST      75              1.0000000000
       374        75  DCM       CL1             1.5071542425       -1.1202013905        0.8047686820  CLST      75              1.0000000000
       375        75  DCM       CL2             3.6626777056       -1.7229742021       -1.0791112372  CLST      75              1.0000000000
       376        76  DCM       C               2.5759559028       -1.9061065223        0.2269773337  CLST      76              1.0000000000
       377        76  DCM       H1              2.2362622463       -2.9633471345        0.2812573974  CLST      76              1.0000000000
       378        76  DCM       H2              3.6124217528       -1.7951858542        0.5973582258  CLST      76              1.0000000000
       379        76  DCM       CL1             1.4942285607       -0.9131608376        1.2377601223  CLST      76              1.0000000000
       380        76  DCM       CL2             2.4951985848       -1.3545354975       -1.4710426107  CLST      76              1.0000000000
       381        77  DCM       C              -2.2450446662       -0.6327142284        1.9882338058  CLST      77              1.0000000000
       382        77  DCM       H1             -2.5305518971       -1.2730291778        2.8498273053  CLST      77              1.0000000000
       383        77  DCM       H2             -2.2878788204       -1.2007534332        1.0350135194  CLST      77              1.0000000000
       384        77  DCM       CL1            -3.3763017292        0.7458161478        1.8860340909  CLST      77              1.0000000000
       385        77  DCM       CL2            -0.5787072964       -0.0324977344        2.2344872349  CLST      77              1.0000000000
       386        78  DCM       C               0.2837956204        0.9622860414       -1.7668241969  CLST      78              1.0000000000
       387        78  DCM       H1              1.2971069290        0.5469513398       -1.9465033796  CLST      78              1.0000000000
       388        78  DCM       H2              0.3456653276        2.0046068200       -1.3939426487  CLST      78              1.0000000000
       389        78  DCM       CL1            -0.5580936265       -0.0436097850       -0.5505295073  CLST      78              1.0000000000
       390        78  DCM       CL2            -0.6311705770        0.9497618219       -3.3023220262  CLST      78              1.0000000000
       391        79  DCM       C               2.9349731941        1.5834582650        3.3451464870  CLST      79              1.0000000000
       392        79  DCM       H1              3.3604265291        1.7075865661        4.3635786262  CLST      79              1.0000000000
       393        79  DCM       H2              2.8582577150        0.5094884755        3.0724919838  CLST      79              1.0000000000
       394        79  DCM       CL1             1.3065715423        2.3175664564        3.2966672436  CLST      79              1.0000000000
       395        79  DCM       CL2             3.9971548432        2.4053701481        2.1688535352  CLST      79              1.0000000000
       396        80  DCM       C               2.3292748821       -1.3483481111       -3.2961652565  CLST      80              1.0000000000
       397        80  DCM       H1              2.9717106735       -2.2506123199       -3.2067303541  CLST      80              1.0000000000
       398        80  DCM       H2              1.5371599858       -1.4959539995       -4.0599720193  CLST      80              1.0000000000
       399        80  DCM       CL1             1.5591287076       -1.0261754096       -1.7168290043  CLST      80              1.0000000000
       400        80  DCM       CL2             3.3449808648        0.0447715001       -3.7688739758  CLST      80              1.0000000000
       401        81  DCM       C              -3.6286120031       -1.0510162165       -0.5408771285  CLST      81              1.0000000000
       402        81  DCM       H1             -3.4041289802       -1.0679210107        0.5469806234  CLST      81              1.0000000000
       403        81  DCM       H2             -4.3918988963       -1.8151902173       -0.7998952615  CLST      81              1.0000000000
       404        81  DCM       CL1            -4.2502369055        0.5639187244       -0.9902801463  CLST      81              1.0000000000
       405        81  DCM       CL2            -2.1263101629       -1.3946801318       -1.4474285671  CLST      81              1.0000000000
       406        82  DCM       C               1.0084276443        1.5073805797        1.4883748566  CLST      82              1.0000000000
       407        82  DCM       H1              0.4321309540        1.8305755034        0.5949591532  CLST      82              1.0000000000
       408        82  DCM       H2              2.0987456369        1.5002470834        1.2777569262  CLST      82              1.0000000000
       409        82  DCM       CL1             0.6856625163        2.6366067411        2.8363325767  CLST      82              1.0000000000
       410        82  DCM       CL2             0.4952192080       -0.1423538464        1.9453893922  CLST      82              1.0000000000
       411        83  DCM       C               1.4601235065       -2.1852500093       -0.4708991887  CLST      83              1.0000000000
       412        83  DCM       H1              1.4372748590       -3.2880063479       -0.5966714555  CLST      83              1.0000000000
       413        83  DCM       H2              1.3383503726       -1.6746434590       -1.4491257637  CLST      83              1.0000000000
       414        83  DCM       CL1             3.0243256476       -1.7078215642        0.2501810785  CLST      83              1.0000000000
       415        83  DCM       CL2             0.1298726087       -1.6871522356        0.6129340196  CLST      83              1.0000000000
       416        84  DCM       C               1.6504023047       -2.5311850040       -2.0528399969  CLST      84              1.0000000000
       417        84  DCM       H1              2.5762774898       -2.1963061573       -2.5671721139  CLST      84              1.0000000000
       418        84  DCM       H2              1.8853120254       -3.0336112240       -1.0909860594  CLST      84              1.0000000000
       419        84  DCM       CL1             0.6199270089       -1.1074201431       -1.7301092788  CLST      84              1.0000000000
       420        84  DCM       CL2             0.7837820618       -3.6784493269       -3.1127695793  CLST      84              1.0000000000
       421        85  DCM       C               0.6947465299       -1.3664419251       -0.7510852041  CLST      85              1.0000000000
       422        85  DCM       H1              0.5861010220       -1.6017822440        0.3294201584  CLST      85              1.0000000000
       423        85  DCM       H2             -0.2869235565       -1.3956592163       -1.2687258312  CLST      85              1.0000000000
       424        85  DCM       CL1             1.3901656405        0.2694309652       -0.9205202257  CLST      85              1.0000000000
       425        85  DCM       CL2             1.7860499125       -2.5654510219       -1.5032223641  CLST      85              1.0000000000
       426        86  DCM       C              -0.0322421362        1.7604130618        2.8637649572  CLST      86              1.0000000000
       427        86  DCM       H1              0.7060671181        2.0499076049        2.0879071949  CLST      86              1.0000000000
       428        86  DCM       H2             -1.0581091086        2.0769460656        2.5797092370  CLST      86              1.0000000000
       429        86  DCM       CL1            -0.0081098344       -0.0165247362        3.0592092130  CLST      86              1.0000000000
       430        86  DCM       CL2             0.4121900175        2.5461997042        4.4063082940  CLST      86              1.0000000000
       431        87  DCM       C              -0.9519376915       -0.3815554929        2.5807981443  CLST      87              1.0000000000
       432        87  DCM       H1             -1.3257126485       -1.1543519085        1.8769601383  CLST      87              1.0000000000
       433        87  DCM       H2             -1.0973112992       -0.6973596940        3.6357906107  CLST      87              1.0000000000
       434        87  DCM       CL1             0.7904947041       -0.1209799083        2.2822352169  CLST      87              1.0000000000
       435        87  DCM       CL2            -1.8472034833        1.1384946255        2.2956807418  CLST      87              1.0000000000
       436        88  DCM       C              -2.5509599436        0.0859787965        2.2653317331  CLST      88              1.0000000000
       437        88  DCM       H1             -3.0133642255       -0.2430399712        1.3111950315  CLST      88              1.0000000000
       438        88  DCM       H2             -3.0035481377       -0.4380810550        3.1315530748  CLST      88              1.0000000000
       439        88  DCM       CL1            -0.8021098932       -0.2792134509        2.2094629909  CLST      88              1.0000000000
       440        88  DCM       CL2            -2.7978633911        1.8458606562        2.4582330549  CLST      88              1.0000000000
       441        89  DCM       C              -2.4828638040        0.6376969874        2.5371316072  CLST      89              1.0000000000
       442        89  DCM       H1             -2.4649729099        1.3452819706        1.6851814506  CLST      89              1.0000000000
       443        89  DCM       H2             -3.3038814118        0.8887435402        3.2405158986  CLST      89              1.0000000000
       444        89  DCM       CL1            -2.7425281005       -1.0203515669        1.9212820896  CLST      89              1.0000000000
       445        89  DCM       CL2            -0.9206993121        0.7253151384        3.4035693966  CLST      89              1.0000000000
       446        90  DCM       C               1.9331503259        0.2265834837       -2.4960813814  CLST      90              1.0000000000
       447        90  DCM       H1              0.8945307025        0.5913055101       -2.3494758825  CLST      90              1.0000000000
       448        90  DCM       H2              2.4879016680        0.8771697105       -3.2051539171  CLST      90              1.0000000000
       449        90  DCM       CL1             1.8798025222       -1.4352424864       -3.1500169629  CLST      90              1.0000000000
       450        90  DCM       CL2             2.7776233354        0.2241240484       -0.9222149294  CLST      90              1.0000000000
       451        91  DCM       C               0.7354649583        1.4813934173        0.6274989241  CLST      91              1.0000000000
       452        91  DCM       H1              0.9521443352        0.5686566964        1.2178763090  CLST      91              1.0000000000
       453        91  DCM       H2              0.9919427942        1.3363450873       -0.4411439072  CLST      91              1.0000000000
       454        91  DCM       CL1             1.7085951835        2.8324233799        1.2669446768  CLST      91              1.0000000000
       455        91  DCM       CL2            -1.0038579871        1.8635403794        0.7687806644  CLST      91              1.0000000000
       456        92  DCM       C              -0.6604932067        2.8004574581        0.1070739138  CLST      92              1.0000000000
       457        92  DCM       H1              0.1946313728        3.1689458359       -0.4976488838  CLST      92              1.0000000000
       458        92  DCM       H2             -1.5997594552        3.3256356205       -0.1664591447  CLST      92              1.0000000000
       459        92  DCM       CL1            -0.8680060845        1.0483789142       -0.1817485368  CLST      92              1.0000000000
       460        92  DCM       CL2            -0.3153000589        3.0935401097        1.8362705545  CLST      92              1.0000000000
