* PRE_MLPOT:MONOMER_REPACK
*  DATE:     6/28/26      2: 4: 6      CREATED BY USER: boittier
*
       475  EXT
         1         1  DCM       C              -1.1802181722        0.9901089776       -0.9952471937  CLST      1               1.0000000000
         2         1  DCM       H1             -0.2328532834        0.9741574316       -0.4157308218  CLST      1               1.0000000000
         3         1  DCM       H2             -1.8395098912        0.1433406531       -0.7074983373  CLST      1               1.0000000000
         4         1  DCM       CL1            -2.0391689072        2.5163779375       -0.6668485658  CLST      1               1.0000000000
         5         1  DCM       CL2            -0.8092638635        0.8874846697       -2.7402910032  CLST      1               1.0000000000
         6         2  DCM       C               2.7801239896        0.1641815138        0.6571858257  CLST      2               1.0000000000
         7         2  DCM       H1              2.6996061738        1.2711209360        0.6158787823  CLST      2               1.0000000000
         8         2  DCM       H2              3.2855191629       -0.1635594264        1.5896412079  CLST      2               1.0000000000
         9         2  DCM       CL1             3.7281515475       -0.4030468945       -0.7460141389  CLST      2               1.0000000000
        10         2  DCM       CL2             1.1391525280       -0.5426948708        0.5993927064  CLST      2               1.0000000000
        11         3  DCM       C               0.1944033652       -1.4024828508       -1.3277301548  CLST      3               1.0000000000
        12         3  DCM       H1              1.0269542311       -1.2318325415       -2.0424233367  CLST      3               1.0000000000
        13         3  DCM       H2             -0.0427026094       -0.4755304915       -0.7674763970  CLST      3               1.0000000000
        14         3  DCM       CL1            -1.2577780642       -1.9238349273       -2.2309135535  CLST      3               1.0000000000
        15         3  DCM       CL2             0.6779305292       -2.6668135293       -0.1629905487  CLST      3               1.0000000000
        16         4  DCM       C               0.0831244971        2.4578309984       -0.1872757241  CLST      4               1.0000000000
        17         4  DCM       H1              0.6271654613        1.4914804476       -0.1442054743  CLST      4               1.0000000000
        18         4  DCM       H2              0.6529397823        3.2602605505        0.3253827430  CLST      4               1.0000000000
        19         4  DCM       CL1            -0.1533033498        2.9159421155       -1.8970191076  CLST      4               1.0000000000
        20         4  DCM       CL2            -1.5019501344        2.2724437654        0.6150243431  CLST      4               1.0000000000
        21         5  DCM       C              -1.6168934020        0.9715032176        2.3272100911  CLST      5               1.0000000000
        22         5  DCM       H1             -2.3798575236        0.1735865976        2.2086669370  CLST      5               1.0000000000
        23         5  DCM       H2             -1.2418130205        1.3165822733        1.3406061854  CLST      5               1.0000000000
        24         5  DCM       CL1            -0.2456208695        0.3285674510        3.2775377335  CLST      5               1.0000000000
        25         5  DCM       CL2            -2.3542235268        2.3566433899        3.1841731178  CLST      5               1.0000000000
        26         6  DCM       C               2.1999786088        0.9615861109        0.9381910138  CLST      6               1.0000000000
        27         6  DCM       H1              2.1420871827        0.5861792636        1.9820876525  CLST      6               1.0000000000
        28         6  DCM       H2              1.6361890574        1.9115767208        0.8243602868  CLST      6               1.0000000000
        29         6  DCM       CL1             3.9130276962        1.2466207015        0.5125590644  CLST      6               1.0000000000
        30         6  DCM       CL2             1.4987560431       -0.2604127227       -0.1620785851  CLST      6               1.0000000000
        31         7  DCM       C               1.9298388014       -2.2712204522        2.7701499764  CLST      7               1.0000000000
        32         7  DCM       H1              2.7163848424       -3.0515849833        2.8462730258  CLST      7               1.0000000000
        33         7  DCM       H2              1.6783498087       -2.0620723747        1.7085775858  CLST      7               1.0000000000
        34         7  DCM       CL1             0.4619181991       -2.8417885058        3.6173595138  CLST      7               1.0000000000
        35         7  DCM       CL2             2.5301215019       -0.7709239964        3.5349550253  CLST      7               1.0000000000
        36         8  DCM       C               1.4646863832       -3.3390315704       -1.6367473375  CLST      8               1.0000000000
        37         8  DCM       H1              1.4996887666       -2.7092343246       -0.7225890769  CLST      8               1.0000000000
        38         8  DCM       H2              2.4599470558       -3.7812640781       -1.8541712134  CLST      8               1.0000000000
        39         8  DCM       CL1             0.2808962062       -4.6566414159       -1.3932417820  CLST      8               1.0000000000
        40         8  DCM       CL2             0.9648182244       -2.3249906027       -3.0208310675  CLST      8               1.0000000000
        41         9  DCM       C               2.7697024700        1.6744722147       -2.2100614253  CLST      9               1.0000000000
        42         9  DCM       H1              1.7194670048        1.5564666734       -2.5426429663  CLST      9               1.0000000000
        43         9  DCM       H2              3.4662260751        1.1191624898       -2.8704917243  CLST      9               1.0000000000
        44         9  DCM       CL1             3.1854906181        3.4085414826       -2.2413551626  CLST      9               1.0000000000
        45         9  DCM       CL2             2.9300214295        1.0585158075       -0.5419018008  CLST      9               1.0000000000
        46        10  DCM       C              -0.3387028038       -1.9778917400        0.9442283521  CLST      10              1.0000000000
        47        10  DCM       H1             -0.7717645147       -2.4183838391        1.8664528555  CLST      10              1.0000000000
        48        10  DCM       H2             -0.6208957102       -2.5719783945        0.0500897320  CLST      10              1.0000000000
        49        10  DCM       CL1            -0.9513819953       -0.3110360015        0.7481902467  CLST      10              1.0000000000
        50        10  DCM       CL2             1.4412941391       -1.9544365427        1.1011597599  CLST      10              1.0000000000
        51        11  DCM       C               1.5418785027       -1.2158245895       -0.1487418023  CLST      11              1.0000000000
        52        11  DCM       H1              2.4463982042       -0.7938430127        0.3378968763  CLST      11              1.0000000000
        53        11  DCM       H2              1.7711936453       -1.5459124893       -1.1849639902  CLST      11              1.0000000000
        54        11  DCM       CL1             0.9689749593       -2.6210516606        0.8013232626  CLST      11              1.0000000000
        55        11  DCM       CL2             0.2708182763        0.0426209903       -0.2019792338  CLST      11              1.0000000000
        56        12  DCM       C               2.4926158969        2.3024928340        2.5624027982  CLST      12              1.0000000000
        57        12  DCM       H1              1.6763930891        2.9150061977        2.1188048832  CLST      12              1.0000000000
        58        12  DCM       H2              3.1275426127        2.9139466146        3.2379093591  CLST      12              1.0000000000
        59        12  DCM       CL1             1.7739080813        0.9590053013        3.4965035297  CLST      12              1.0000000000
        60        12  DCM       CL2             3.5069132933        1.6514876386        1.2433526153  CLST      12              1.0000000000
        61        13  DCM       C              -1.6788381276        2.5960860107       -0.8822154774  CLST      13              1.0000000000
        62        13  DCM       H1             -1.6818705512        2.3567396227       -1.9662861544  CLST      13              1.0000000000
        63        13  DCM       H2             -0.8189114053        2.1162875778       -0.3688569002  CLST      13              1.0000000000
        64        13  DCM       CL1            -1.5644614361        4.3671080710       -0.6754741224  CLST      13              1.0000000000
        65        13  DCM       CL2            -3.1974356546        1.9982556692       -0.1574959410  CLST      13              1.0000000000
        66        14  DCM       C               3.0673251090       -1.6599712942       -2.9776265176  CLST      14              1.0000000000
        67        14  DCM       H1              3.8229616271       -2.0281171862       -2.2539510989  CLST      14              1.0000000000
        68        14  DCM       H2              2.1176767723       -1.3973091070       -2.4664153042  CLST      14              1.0000000000
        69        14  DCM       CL1             3.7085116680       -0.2085404592       -3.7975276811  CLST      14              1.0000000000
        70        14  DCM       CL2             2.7432146212       -2.9369783433       -4.1845483192  CLST      14              1.0000000000
        71        15  DCM       C              -1.2034800185       -0.0272553063        1.8303047746  CLST      15              1.0000000000
        72        15  DCM       H1             -1.5662994285       -0.7863112246        2.5578050618  CLST      15              1.0000000000
        73        15  DCM       H2             -0.6588783679       -0.5111224212        0.9926569110  CLST      15              1.0000000000
        74        15  DCM       CL1            -2.6033076932        0.8552705473        1.1699630988  CLST      15              1.0000000000
        75        15  DCM       CL2            -0.1168594582        1.1197380215        2.6643403912  CLST      15              1.0000000000
        76        16  DCM       C               0.4160580921       -2.9287651506       -2.2284823235  CLST      16              1.0000000000
        77        16  DCM       H1              0.4464411834       -3.9213683617       -1.7311766352  CLST      16              1.0000000000
        78        16  DCM       H2              0.4660206484       -3.0335860557       -3.3325297756  CLST      16              1.0000000000
        79        16  DCM       CL1            -1.1106488004       -2.1086099311       -1.7925366658  CLST      16              1.0000000000
        80        16  DCM       CL2             1.8063669189       -1.9502473729       -1.6726480485  CLST      16              1.0000000000
        81        17  DCM       C              -2.2600081457        1.8171476592        0.6312086614  CLST      17              1.0000000000
        82        17  DCM       H1             -2.9222114876        2.4855872114        1.2215633270  CLST      17              1.0000000000
        83        17  DCM       H2             -1.1977426015        2.1290867023        0.7188761257  CLST      17              1.0000000000
        84        17  DCM       CL1            -2.4276412230        0.1452743755        1.2420183189  CLST      17              1.0000000000
        85        17  DCM       CL2            -2.7484117203        1.8869842706       -1.0876859074  CLST      17              1.0000000000
        86        18  DCM       C               1.8211911135        1.7799790191        3.4440849643  CLST      18              1.0000000000
        87        18  DCM       H1              2.6791160615        1.5648801545        4.1174105914  CLST      18              1.0000000000
        88        18  DCM       H2              1.9534507271        1.2847085474        2.4589600669  CLST      18              1.0000000000
        89        18  DCM       CL1             0.3242701301        1.1699531277        4.2024666014  CLST      18              1.0000000000
        90        18  DCM       CL2             1.6921766679        3.5470887817        3.2030654674  CLST      18              1.0000000000
        91        19  DCM       C               0.3802369876       -0.0017338358       -2.8114714309  CLST      19              1.0000000000
        92        19  DCM       H1             -0.4575041290       -0.3377026087       -2.1663413150  CLST      19              1.0000000000
        93        19  DCM       H2              0.4829475664        1.1033158411       -2.7857181847  CLST      19              1.0000000000
        94        19  DCM       CL1             1.8962702791       -0.7485420121       -2.2299531056  CLST      19              1.0000000000
        95        19  DCM       CL2             0.0654611226       -0.5101231311       -4.4939471502  CLST      19              1.0000000000
        96        20  DCM       C               2.1689431653       -2.6674509373        1.9564732175  CLST      20              1.0000000000
        97        20  DCM       H1              2.4955763616       -1.8215397538        1.3149062593  CLST      20              1.0000000000
        98        20  DCM       H2              1.4754162962       -2.3210418019        2.7509515375  CLST      20              1.0000000000
        99        20  DCM       CL1             1.3436455547       -3.8879766461        0.9432181333  CLST      20              1.0000000000
       100        20  DCM       CL2             3.6055711843       -3.3965657967        2.7235847195  CLST      20              1.0000000000
       101        21  DCM       C               2.2941683150       -1.4209804527        2.0902834230  CLST      21              1.0000000000
       102        21  DCM       H1              3.0809116500       -1.9324046400        1.4959840662  CLST      21              1.0000000000
       103        21  DCM       H2              2.4252882516       -0.3179453670        2.0618764757  CLST      21              1.0000000000
       104        21  DCM       CL1             0.6931218792       -1.8302431904        1.4102678736  CLST      21              1.0000000000
       105        21  DCM       CL2             2.3924128899       -1.9755528699        3.7863634543  CLST      21              1.0000000000
       106        22  DCM       C              -2.5220429282       -0.2601896851       -0.6124486472  CLST      22              1.0000000000
       107        22  DCM       H1             -2.9931251428       -0.1703827118        0.3876534792  CLST      22              1.0000000000
       108        22  DCM       H2             -3.1587353846        0.2042342633       -1.3943706630  CLST      22              1.0000000000
       109        22  DCM       CL1            -0.9380191856        0.5676437372       -0.5780049033  CLST      22              1.0000000000
       110        22  DCM       CL2            -2.2982559509       -1.9924355720       -0.9906708387  CLST      22              1.0000000000
       111        23  DCM       C              -0.0423273211       -2.6244147860        1.1064765654  CLST      23              1.0000000000
       112        23  DCM       H1              0.9114596112       -3.0754796172        1.4505150617  CLST      23              1.0000000000
       113        23  DCM       H2             -0.3746010413       -1.8219939053        1.7972776210  CLST      23              1.0000000000
       114        23  DCM       CL1             0.1988341724       -1.9271836447       -0.5216786670  CLST      23              1.0000000000
       115        23  DCM       CL2            -1.2941921908       -3.8978935930        1.0481052826  CLST      23              1.0000000000
       116        24  DCM       C              -1.3786737783       -0.9958791918       -2.4859184571  CLST      24              1.0000000000
       117        24  DCM       H1             -0.4075594700       -1.4499638189       -2.7742638630  CLST      24              1.0000000000
       118        24  DCM       H2             -2.0369876996       -0.8678617013       -3.3714141723  CLST      24              1.0000000000
       119        24  DCM       CL1            -2.1906603445       -2.0613017341       -1.3025766314  CLST      24              1.0000000000
       120        24  DCM       CL2            -1.0780080739        0.6029389824       -1.7475396365  CLST      24              1.0000000000
       121        25  DCM       C              -1.7927995539       -2.1581118554       -0.9523444534  CLST      25              1.0000000000
       122        25  DCM       H1             -1.7356635743       -3.0647782577       -1.5894393803  CLST      25              1.0000000000
       123        25  DCM       H2             -1.1793155615       -1.3334437534       -1.3740686787  CLST      25              1.0000000000
       124        25  DCM       CL1            -3.4962451174       -1.6298364126       -0.8583501246  CLST      25              1.0000000000
       125        25  DCM       CL2            -1.1909390441       -2.5664933531        0.6810210844  CLST      25              1.0000000000
       126        26  DCM       C               0.2326489105        1.6025868909       -0.4472071140  CLST      26              1.0000000000
       127        26  DCM       H1             -0.1260601953        0.6062238609       -0.7797853487  CLST      26              1.0000000000
       128        26  DCM       H2             -0.0417351971        2.3899214099       -1.1800975594  CLST      26              1.0000000000
       129        26  DCM       CL1            -0.5143157376        1.9884836984        1.1303755607  CLST      26              1.0000000000
       130        26  DCM       CL2             2.0124511347        1.5579468410       -0.2838457551  CLST      26              1.0000000000
       131        27  DCM       C               0.0193510477       -1.2899166925        0.3543686035  CLST      27              1.0000000000
       132        27  DCM       H1             -0.7513172667       -1.8970510861       -0.1683464948  CLST      27              1.0000000000
       133        27  DCM       H2             -0.1591543428       -0.2057054824        0.2036122698  CLST      27              1.0000000000
       134        27  DCM       CL1            -0.0440388014       -1.6581564503        2.1010022418  CLST      27              1.0000000000
       135        27  DCM       CL2             1.6323828384       -1.7085351911       -0.2927085237  CLST      27              1.0000000000
       136        28  DCM       C               1.6034696177       -1.4069244722       -1.6620692925  CLST      28              1.0000000000
       137        28  DCM       H1              2.2434463256       -0.7410272304       -2.2779768423  CLST      28              1.0000000000
       138        28  DCM       H2              2.1666025243       -2.3019833743       -1.3238522343  CLST      28              1.0000000000
       139        28  DCM       CL1             1.0353860500       -0.5005045558       -0.2294382377  CLST      28              1.0000000000
       140        28  DCM       CL2             0.2064175681       -1.9345608959       -2.6453497300  CLST      28              1.0000000000
       141        29  DCM       C               2.3295908053       -2.1106526113       -1.6526778884  CLST      29              1.0000000000
       142        29  DCM       H1              2.0404366008       -2.9768719710       -1.0206018542  CLST      29              1.0000000000
       143        29  DCM       H2              2.9808719861       -2.4285837624       -2.4942549866  CLST      29              1.0000000000
       144        29  DCM       CL1             0.8505113588       -1.3559700767       -2.3161187225  CLST      29              1.0000000000
       145        29  DCM       CL2             3.2157696022       -0.9274003637       -0.6466502470  CLST      29              1.0000000000
       146        30  DCM       C               2.4999483071        0.9511820635        0.4825768273  CLST      30              1.0000000000
       147        30  DCM       H1              2.4815444231        0.0394876064        1.1155169150  CLST      30              1.0000000000
       148        30  DCM       H2              2.0041147161        1.8018888775        0.9959710674  CLST      30              1.0000000000
       149        30  DCM       CL1             4.1980315179        1.3906855603        0.1424258268  CLST      30              1.0000000000
       150        30  DCM       CL2             1.6446081314        0.6154972237       -1.0515656006  CLST      30              1.0000000000
       151        31  DCM       C              -0.5965245074       -1.8901389286        3.3784354029  CLST      31              1.0000000000
       152        31  DCM       H1             -1.0487706200       -1.9711336206        2.3677065833  CLST      31              1.0000000000
       153        31  DCM       H2              0.3846169842       -1.3721883679        3.3330814636  CLST      31              1.0000000000
       154        31  DCM       CL1            -1.6966114879       -0.9657560787        4.4431585508  CLST      31              1.0000000000
       155        31  DCM       CL2            -0.3587284874       -3.5346874457        4.0350934142  CLST      31              1.0000000000
       156        32  DCM       C               0.0841591626       -2.5281702257       -2.1621560670  CLST      32              1.0000000000
       157        32  DCM       H1             -0.2066855464       -2.5207913915       -1.0899273756  CLST      32              1.0000000000
       158        32  DCM       H2              1.1565672616       -2.7925875711       -2.2857537684  CLST      32              1.0000000000
       159        32  DCM       CL1            -0.9069444719       -3.7257485294       -3.0435754349  CLST      32              1.0000000000
       160        32  DCM       CL2            -0.1837104862       -0.9017434327       -2.8488734702  CLST      32              1.0000000000
       161        33  DCM       C               0.4486589092        2.5866208154        1.1526264470  CLST      33              1.0000000000
       162        33  DCM       H1              0.5251909892        3.6093803985        1.5795359973  CLST      33              1.0000000000
       163        33  DCM       H2              1.2240576430        1.9168039436        1.5794363807  CLST      33              1.0000000000
       164        33  DCM       CL1            -1.1693767515        1.9214763985        1.5223930049  CLST      33              1.0000000000
       165        33  DCM       CL2             0.6742653138        2.6781184877       -0.6182123524  CLST      33              1.0000000000
       166        34  DCM       C              -3.6434117471        0.8781929398       -1.8543868148  CLST      34              1.0000000000
       167        34  DCM       H1             -4.6625291348        0.5046595991       -2.0865382977  CLST      34              1.0000000000
       168        34  DCM       H2             -2.8712657837        0.2776475423       -2.3795483897  CLST      34              1.0000000000
       169        34  DCM       CL1            -3.5169189350        2.5795209520       -2.3847570828  CLST      34              1.0000000000
       170        34  DCM       CL2            -3.3707047223        0.7633799402       -0.0913002630  CLST      34              1.0000000000
       171        35  DCM       C              -1.9548611192        2.4388815480        1.6665089505  CLST      35              1.0000000000
       172        35  DCM       H1             -1.8034901856        3.2172580296        0.8890366942  CLST      35              1.0000000000
       173        35  DCM       H2             -1.3985861171        2.6917370509        2.5925009421  CLST      35              1.0000000000
       174        35  DCM       CL1            -1.3617507437        0.8706110079        1.0457979368  CLST      35              1.0000000000
       175        35  DCM       CL2            -3.6978141329        2.3242414414        2.0498084675  CLST      35              1.0000000000
       176        36  DCM       C              -0.9404571658        2.1167390581       -2.3407775548  CLST      36              1.0000000000
       177        36  DCM       H1             -0.6278351174        3.1642003728       -2.5367483668  CLST      36              1.0000000000
       178        36  DCM       H2             -0.3369005228        1.6677619678       -1.5254968248  CLST      36              1.0000000000
       179        36  DCM       CL1            -0.7123226866        1.1426729864       -3.8212560944  CLST      36              1.0000000000
       180        36  DCM       CL2            -2.6585746020        2.1089767557       -1.8552003395  CLST      36              1.0000000000
       181        37  DCM       C              -0.8474246817        1.7115257923        1.4836751070  CLST      37              1.0000000000
       182        37  DCM       H1             -1.6477171166        2.2769462633        0.9610457886  CLST      37              1.0000000000
       183        37  DCM       H2             -1.1030706696        0.6333253922        1.5480604417  CLST      37              1.0000000000
       184        37  DCM       CL1             0.6804125893        1.8892868945        0.5743797295  CLST      37              1.0000000000
       185        37  DCM       CL2            -0.6493189012        2.3669459359        3.1347239333  CLST      37              1.0000000000
       186        38  DCM       C              -1.6102434696       -1.1048220888        1.6446749973  CLST      38              1.0000000000
       187        38  DCM       H1             -1.7588158938       -2.0259537133        2.2475963685  CLST      38              1.0000000000
       188        38  DCM       H2             -1.3711202407       -1.3540911063        0.5878363868  CLST      38              1.0000000000
       189        38  DCM       CL1            -3.1058036243       -0.1266774385        1.6912965710  CLST      38              1.0000000000
       190        38  DCM       CL2            -0.2580251505       -0.1674054871        2.3392246871  CLST      38              1.0000000000
       191        39  DCM       C               0.0830891226        1.9968433779        1.8185931675  CLST      39              1.0000000000
       192        39  DCM       H1             -0.7201271732        2.7482310754        1.9709073023  CLST      39              1.0000000000
       193        39  DCM       H2              0.1717828923        1.7193644039        0.7494815474  CLST      39              1.0000000000
       194        39  DCM       CL1             1.6408016652        2.6873706071        2.3684170435  CLST      39              1.0000000000
       195        39  DCM       CL2            -0.2930762243        0.5244983148        2.7627384813  CLST      39              1.0000000000
       196        40  DCM       C              -1.7727882399       -3.1216599957        1.1637999975  CLST      40              1.0000000000
       197        40  DCM       H1             -1.4077749678       -2.3328940391        0.4715276613  CLST      40              1.0000000000
       198        40  DCM       H2             -1.7463755607       -4.1200256341        0.6809101481  CLST      40              1.0000000000
       199        40  DCM       CL1            -0.7285371273       -3.1536672231        2.6115473225  CLST      40              1.0000000000
       200        40  DCM       CL2            -3.4527949086       -2.7452397671        1.6419335109  CLST      40              1.0000000000
       201        41  DCM       C               0.7067769618       -2.1815010837       -0.2173177403  CLST      41              1.0000000000
       202        41  DCM       H1              1.6689730010       -2.3150841383       -0.7535244647  CLST      41              1.0000000000
       203        41  DCM       H2              0.0576350984       -3.0731321851       -0.3441271259  CLST      41              1.0000000000
       204        41  DCM       CL1             1.0441303668       -1.9451911345        1.5206348289  CLST      41              1.0000000000
       205        41  DCM       CL2            -0.1332538791       -0.7441722091       -0.8684804268  CLST      41              1.0000000000
       206        42  DCM       C              -2.5172206637       -2.5075664349        0.5126900918  CLST      42              1.0000000000
       207        42  DCM       H1             -3.2611874735       -1.6920865885        0.5931098931  CLST      42              1.0000000000
       208        42  DCM       H2             -1.7083400298       -2.2407514776       -0.1957105457  CLST      42              1.0000000000
       209        42  DCM       CL1            -1.8000715651       -2.8031050268        2.1187844840  CLST      42              1.0000000000
       210        42  DCM       CL2            -3.3409812188       -3.9836514486       -0.0602866331  CLST      42              1.0000000000
       211        43  DCM       C              -0.5865573824       -1.2075851076       -2.6170877952  CLST      43              1.0000000000
       212        43  DCM       H1              0.0891706220       -0.3805713227       -2.3177092784  CLST      43              1.0000000000
       213        43  DCM       H2             -0.9596164447       -1.0656888004       -3.6529053809  CLST      43              1.0000000000
       214        43  DCM       CL1             0.3123582596       -2.7501265928       -2.5419758145  CLST      43              1.0000000000
       215        43  DCM       CL2            -1.9797249057       -1.2605258768       -1.4952187836  CLST      43              1.0000000000
       216        44  DCM       C              -1.1804442727       -0.2992359714       -0.3428567109  CLST      44              1.0000000000
       217        44  DCM       H1             -0.5035759052       -1.1280636253       -0.6406761723  CLST      44              1.0000000000
       218        44  DCM       H2             -1.8420253973       -0.6057579797        0.4948849232  CLST      44              1.0000000000
       219        44  DCM       CL1            -0.1958346829        1.0970096410        0.1796411850  CLST      44              1.0000000000
       220        44  DCM       CL2            -2.1889666919        0.1638600856       -1.7435254813  CLST      44              1.0000000000
       221        45  DCM       C               0.3627688652        0.4359855595        2.6195744340  CLST      45              1.0000000000
       222        45  DCM       H1              0.4490153351       -0.5269224133        2.0741526420  CLST      45              1.0000000000
       223        45  DCM       H2             -0.1176420728        0.2871789108        3.6097918548  CLST      45              1.0000000000
       224        45  DCM       CL1             1.9936645723        1.1258930272        2.8550068109  CLST      45              1.0000000000
       225        45  DCM       CL2            -0.6282919583        1.5650532264        1.6543388478  CLST      45              1.0000000000
       226        46  DCM       C               0.4884871190       -2.8132364632        0.8047420772  CLST      46              1.0000000000
       227        46  DCM       H1              1.5327390184       -3.0606325282        1.0868630028  CLST      46              1.0000000000
       228        46  DCM       H2              0.4641212474       -2.0840766419       -0.0325123984  CLST      46              1.0000000000
       229        46  DCM       CL1            -0.3430141208       -4.3122785747        0.2983741695  CLST      46              1.0000000000
       230        46  DCM       CL2            -0.3376657461       -2.1019017841        2.2222212101  CLST      46              1.0000000000
       231        47  DCM       C              -1.9592046372        0.4970055189       -3.0861625409  CLST      47              1.0000000000
       232        47  DCM       H1             -2.5568615842        1.0513626338       -2.3322666225  CLST      47              1.0000000000
       233        47  DCM       H2             -1.2668873688       -0.2192291939       -2.5996608779  CLST      47              1.0000000000
       234        47  DCM       CL1            -3.0703877392       -0.4091295752       -4.1517077908  CLST      47              1.0000000000
       235        47  DCM       CL2            -0.9919949452        1.6563429144       -4.0419555418  CLST      47              1.0000000000
       236        48  DCM       C              -0.6035539662        2.0828201769       -2.0715365609  CLST      48              1.0000000000
       237        48  DCM       H1             -1.6502224057        2.0557536378       -1.6987724637  CLST      48              1.0000000000
       238        48  DCM       H2             -0.3568160608        1.1548936152       -2.6296834511  CLST      48              1.0000000000
       239        48  DCM       CL1            -0.4039699147        3.4909852773       -3.1541135181  CLST      48              1.0000000000
       240        48  DCM       CL2             0.5058607262        2.2306451975       -0.6800074820  CLST      48              1.0000000000
       241        49  DCM       C               2.6944268997        1.0989141777       -1.4695996190  CLST      49              1.0000000000
       242        49  DCM       H1              2.9354897089        2.1600383946       -1.2556896651  CLST      49              1.0000000000
       243        49  DCM       H2              1.9411495084        0.7113995730       -0.7540526076  CLST      49              1.0000000000
       244        49  DCM       CL1             2.0514859270        0.9696495984       -3.1318338649  CLST      49              1.0000000000
       245        49  DCM       CL2             4.1829959224        0.1272167044       -1.3199842797  CLST      49              1.0000000000
       246        50  DCM       C              -1.7537785302       -1.6880592010       -0.8497396357  CLST      50              1.0000000000
       247        50  DCM       H1             -2.0009381934       -2.7590662431       -0.7016967641  CLST      50              1.0000000000
       248        50  DCM       H2             -2.5633828975       -1.1629976680       -1.3963853617  CLST      50              1.0000000000
       249        50  DCM       CL1            -1.5280057589       -0.9132592541        0.7441069715  CLST      50              1.0000000000
       250        50  DCM       CL2            -0.2531354574       -1.5617595463       -1.8068798867  CLST      50              1.0000000000
       251        51  DCM       C              -2.6456707409        2.4299509446       -1.6988953896  CLST      51              1.0000000000
       252        51  DCM       H1             -3.4864389119        2.4229001017       -0.9764342322  CLST      51              1.0000000000
       253        51  DCM       H2             -2.0448023798        3.3577113812       -1.6038121067  CLST      51              1.0000000000
       254        51  DCM       CL1            -3.3220440193        2.3417302201       -3.3474700516  CLST      51              1.0000000000
       255        51  DCM       CL2            -1.5997159664        1.0142656913       -1.3878960455  CLST      51              1.0000000000
       256        52  DCM       C              -2.7145615364        0.5754738210        1.2640019695  CLST      52              1.0000000000
       257        52  DCM       H1             -2.2865159362       -0.3042516244        0.7381726775  CLST      52              1.0000000000
       258        52  DCM       H2             -3.0490267153        1.3486703955        0.5404517621  CLST      52              1.0000000000
       259        52  DCM       CL1            -4.1168697788        0.0444111385        2.2380944550  CLST      52              1.0000000000
       260        52  DCM       CL2            -1.4654871761        1.2792592961        2.3318886602  CLST      52              1.0000000000
       261        53  DCM       C               2.7920505541        2.2902352627       -0.3231572839  CLST      53              1.0000000000
       262        53  DCM       H1              2.4105464080        3.0109684667       -1.0770623559  CLST      53              1.0000000000
       263        53  DCM       H2              2.6847229153        2.6902336240        0.7081093223  CLST      53              1.0000000000
       264        53  DCM       CL1             1.8561344488        0.7741118751       -0.4546230696  CLST      53              1.0000000000
       265        53  DCM       CL2             4.5208571854        1.9771292230       -0.6508173710  CLST      53              1.0000000000
       266        54  DCM       C               2.0396044551       -1.8466823881        1.1588119653  CLST      54              1.0000000000
       267        54  DCM       H1              2.4578264054       -2.5654305916        1.8966259872  CLST      54              1.0000000000
       268        54  DCM       H2              2.0073985976       -0.8211913803        1.5839295600  CLST      54              1.0000000000
       269        54  DCM       CL1             0.3814197066       -2.3567956218        0.7286499915  CLST      54              1.0000000000
       270        54  DCM       CL2             3.0697469360       -1.8302903246       -0.3028131337  CLST      54              1.0000000000
       271        55  DCM       C               2.0664461649       -1.5412485082        0.1620609540  CLST      55              1.0000000000
       272        55  DCM       H1              2.9847012460       -0.9218092161        0.0777718349  CLST      55              1.0000000000
       273        55  DCM       H2              2.3188865559       -2.6149081539        0.2918754101  CLST      55              1.0000000000
       274        55  DCM       CL1             1.1221143997       -0.9916160253        1.5762100751  CLST      55              1.0000000000
       275        55  DCM       CL2             1.0951046183       -1.3493861208       -1.3259780348  CLST      55              1.0000000000
       276        56  DCM       C               0.3472934534        1.0895772089       -0.3857590354  CLST      56              1.0000000000
       277        56  DCM       H1             -0.2725739051        1.8155830290        0.1808842453  CLST      56              1.0000000000
       278        56  DCM       H2              1.1385908151        1.6081324488       -0.9673558185  CLST      56              1.0000000000
       279        56  DCM       CL1             1.1180499872       -0.0420896693        0.7632827995  CLST      56              1.0000000000
       280        56  DCM       CL2            -0.7065791197        0.1862381782       -1.5109221132  CLST      56              1.0000000000
       281        57  DCM       C               0.4352430331       -0.2867576573        0.6180500924  CLST      57              1.0000000000
       282        57  DCM       H1             -0.5876566949       -0.1753917167        1.0342264370  CLST      57              1.0000000000
       283        57  DCM       H2              0.6271108763       -1.3367041451        0.3152732679  CLST      57              1.0000000000
       284        57  DCM       CL1             1.6237768933        0.1825712001        1.8655511972  CLST      57              1.0000000000
       285        57  DCM       CL2             0.6023211068        0.7705023427       -0.8112331344  CLST      57              1.0000000000
       286        58  DCM       C               2.1062642359        0.3199137578       -1.9248784388  CLST      58              1.0000000000
       287        58  DCM       H1              2.3245705906        1.2829282493       -2.4317933150  CLST      58              1.0000000000
       288        58  DCM       H2              2.9192075855        0.0501528512       -1.2202324907  CLST      58              1.0000000000
       289        58  DCM       CL1             0.5747620770        0.4699945254       -1.0167929642  CLST      58              1.0000000000
       290        58  DCM       CL2             1.9554260513       -0.9643835273       -3.1574293609  CLST      58              1.0000000000
       291        59  DCM       C               3.2691121998       -2.3557067260        0.3871290140  CLST      59              1.0000000000
       292        59  DCM       H1              3.3917469997       -2.7901189557        1.4013801030  CLST      59              1.0000000000
       293        59  DCM       H2              3.3726493519       -1.2502360163        0.4102944186  CLST      59              1.0000000000
       294        59  DCM       CL1             4.5228235380       -3.0339813643       -0.6905375694  CLST      59              1.0000000000
       295        59  DCM       CL2             1.6449458119       -2.7738320014       -0.2292419045  CLST      59              1.0000000000
       296        60  DCM       C               3.4146206403        2.3294166317        1.4251377896  CLST      60              1.0000000000
       297        60  DCM       H1              2.5048774611        2.8831289621        1.1117647547  CLST      60              1.0000000000
       298        60  DCM       H2              3.7818548703        2.6927310899        2.4077383689  CLST      60              1.0000000000
       299        60  DCM       CL1             3.0224380787        0.5911079450        1.5548911111  CLST      60              1.0000000000
       300        60  DCM       CL2             4.6905046669        2.5720262321        0.1991596239  CLST      60              1.0000000000
       301        61  DCM       C              -2.8271331360       -2.0784156038        1.8965898543  CLST      61              1.0000000000
       302        61  DCM       H1             -3.1565887119       -2.2776842079        2.9385356135  CLST      61              1.0000000000
       303        61  DCM       H2             -3.5874172235       -2.4224996240        1.1637625926  CLST      61              1.0000000000
       304        61  DCM       CL1            -2.5766283815       -0.3198460940        1.6930824174  CLST      61              1.0000000000
       305        61  DCM       CL2            -1.2938154960       -2.9474610268        1.5957865964  CLST      61              1.0000000000
       306        62  DCM       C               2.1495027012       -2.9614727582       -2.6339650893  CLST      62              1.0000000000
       307        62  DCM       H1              1.4275519821       -2.7901425152       -3.4605754753  CLST      62              1.0000000000
       308        62  DCM       H2              2.4181477856       -4.0341486198       -2.5511184890  CLST      62              1.0000000000
       309        62  DCM       CL1             3.6290768202       -2.0123247745       -2.9448839197  CLST      62              1.0000000000
       310        62  DCM       CL2             1.4169875785       -2.4345287561       -1.0940049908  CLST      62              1.0000000000
       311        63  DCM       C              -2.7582751726        0.7809523191       -2.3353253535  CLST      63              1.0000000000
       312        63  DCM       H1             -3.5878667050        1.4585798856       -2.0408373575  CLST      63              1.0000000000
       313        63  DCM       H2             -1.7777386402        1.1799293866       -1.9990641239  CLST      63              1.0000000000
       314        63  DCM       CL1            -3.0213483811       -0.8243124139       -1.5980515909  CLST      63              1.0000000000
       315        63  DCM       CL2            -2.7433046360        0.6209851854       -4.1122302747  CLST      63              1.0000000000
       316        64  DCM       C              -2.7362884144       -0.0331692023        2.5112260496  CLST      64              1.0000000000
       317        64  DCM       H1             -2.6852118929       -0.1913859216        3.6089225615  CLST      64              1.0000000000
       318        64  DCM       H2             -2.0074331372       -0.6818152181        1.9808195616  CLST      64              1.0000000000
       319        64  DCM       CL1            -4.3861851578       -0.4251518688        1.9424912557  CLST      64              1.0000000000
       320        64  DCM       CL2            -2.3587946696        1.6766286626        2.1479578431  CLST      64              1.0000000000
       321        65  DCM       C              -3.0376691918        0.6071161196       -1.6755715592  CLST      65              1.0000000000
       322        65  DCM       H1             -3.5384186267       -0.1552087132       -2.3086595011  CLST      65              1.0000000000
       323        65  DCM       H2             -3.6730055101        1.5108882360       -1.5614845098  CLST      65              1.0000000000
       324        65  DCM       CL1            -2.7260521307       -0.0900731451       -0.0598845800  CLST      65              1.0000000000
       325        65  DCM       CL2            -1.4926690183        1.0735393856       -2.4427656988  CLST      65              1.0000000000
       326        66  DCM       C               0.4159793106        1.6522008943       -2.7332348730  CLST      66              1.0000000000
       327        66  DCM       H1              1.2934358647        1.8668945209       -3.3774181726  CLST      66              1.0000000000
       328        66  DCM       H2              0.4115477157        2.2970214689       -1.8295305520  CLST      66              1.0000000000
       329        66  DCM       CL1            -1.0819515287        1.9403699942       -3.6565968531  CLST      66              1.0000000000
       330        66  DCM       CL2             0.4805300069       -0.0554086763       -2.2279407437  CLST      66              1.0000000000
       331        67  DCM       C               1.2643039712       -0.9097142334        2.9087920551  CLST      67              1.0000000000
       332        67  DCM       H1              1.7173154676       -1.5711221787        3.6769223585  CLST      67              1.0000000000
       333        67  DCM       H2              1.3857489077        0.1595091681        3.1826664670  CLST      67              1.0000000000
       334        67  DCM       CL1             2.0679950046       -1.2060169553        1.3390694419  CLST      67              1.0000000000
       335        67  DCM       CL2            -0.4791747700       -1.2827450066        2.7781052679  CLST      67              1.0000000000
       336        68  DCM       C              -2.4337849035       -3.1271262937       -1.5107117715  CLST      68              1.0000000000
       337        68  DCM       H1             -2.9032552683       -3.6146275611       -0.6302215969  CLST      68              1.0000000000
       338        68  DCM       H2             -2.3566914550       -3.8350400526       -2.3625965353  CLST      68              1.0000000000
       339        68  DCM       CL1            -3.4318313051       -1.7320711656       -2.0054827922  CLST      68              1.0000000000
       340        68  DCM       CL2            -0.7972347598       -2.5679345910       -1.0647103215  CLST      68              1.0000000000
       341        69  DCM       C               1.1514272906        0.4734242568       -0.3152279353  CLST      69              1.0000000000
       342        69  DCM       H1              0.9671573475        1.0788884845       -1.2273365101  CLST      69              1.0000000000
       343        69  DCM       H2              1.0829295354       -0.6153457661       -0.5343524198  CLST      69              1.0000000000
       344        69  DCM       CL1             2.7858607244        0.8380685178        0.3063280791  CLST      69              1.0000000000
       345        69  DCM       CL2            -0.0709045561        0.8911104870        0.9189086302  CLST      69              1.0000000000
       346        70  DCM       C               0.4761500531        2.4769421533       -2.8827632563  CLST      70              1.0000000000
       347        70  DCM       H1              0.5757823859        2.9900008461       -1.9034494047  CLST      70              1.0000000000
       348        70  DCM       H2              1.2250030414        2.8577199296       -3.6088993928  CLST      70              1.0000000000
       349        70  DCM       CL1             0.7342615880        0.7240623650       -2.6464486583  CLST      70              1.0000000000
       350        70  DCM       CL2            -1.1650824291        2.7660355611       -3.5295262403  CLST      70              1.0000000000
       351        71  DCM       C              -2.3179437445       -2.0567190512       -2.6828284864  CLST      71              1.0000000000
       352        71  DCM       H1             -2.8805817145       -1.9671919385       -3.6357793040  CLST      71              1.0000000000
       353        71  DCM       H2             -2.6111210853       -1.2580404204       -1.9699886545  CLST      71              1.0000000000
       354        71  DCM       CL1            -0.5701577413       -1.9180989523       -3.0276127901  CLST      71              1.0000000000
       355        71  DCM       CL2            -2.6692072330       -3.6451804214       -1.9434907732  CLST      71              1.0000000000
       356        72  DCM       C               0.4646206704        0.4405746221        2.2824350927  CLST      72              1.0000000000
       357        72  DCM       H1              0.4685589625        0.9052356978        1.2713033280  CLST      72              1.0000000000
       358        72  DCM       H2              0.9406229166        1.1069219481        3.0363401502  CLST      72              1.0000000000
       359        72  DCM       CL1             1.3650102400       -1.1013257010        2.2019748994  CLST      72              1.0000000000
       360        72  DCM       CL2            -1.2266716393        0.1260055789        2.7698595110  CLST      72              1.0000000000
       361        73  DCM       C              -1.0512178939        1.2969674445       -1.4924068658  CLST      73              1.0000000000
       362        73  DCM       H1             -1.1978128129        2.1555421215       -0.8028086536  CLST      73              1.0000000000
       363        73  DCM       H2             -1.6202583437        1.4384735448       -2.4359720504  CLST      73              1.0000000000
       364        73  DCM       CL1            -1.6193173300       -0.1963291558       -0.6909114366  CLST      73              1.0000000000
       365        73  DCM       CL2             0.6887093026        1.1541538034       -1.8781030350  CLST      73              1.0000000000
       366        74  DCM       C              -0.5656215045       -0.7499283710        2.5550480758  CLST      74              1.0000000000
       367        74  DCM       H1             -1.1350736227       -1.1264892703        1.6791673144  CLST      74              1.0000000000
       368        74  DCM       H2              0.1474238971        0.0464974678        2.2542413148  CLST      74              1.0000000000
       369        74  DCM       CL1            -1.7131746628       -0.0793831453        3.7493082635  CLST      74              1.0000000000
       370        74  DCM       CL2             0.3428163789       -2.1054310045        3.2859944799  CLST      74              1.0000000000
       371        75  DCM       C               1.3373034387        2.4509469566        1.1472344208  CLST      75              1.0000000000
       372        75  DCM       H1              1.0599741998        1.8926877816        2.0644603428  CLST      75              1.0000000000
       373        75  DCM       H2              0.4932100066        3.0782073307        0.7949849298  CLST      75              1.0000000000
       374        75  DCM       CL1             2.7306565739        3.5074497316        1.5072508504  CLST      75              1.0000000000
       375        75  DCM       CL2             1.7740727659        1.2821824582       -0.1301970351  CLST      75              1.0000000000
       376        76  DCM       C               2.2420874568       -0.6119708849        0.8906881258  CLST      76              1.0000000000
       377        76  DCM       H1              2.1377438202       -0.3068144229        1.9530999869  CLST      76              1.0000000000
       378        76  DCM       H2              3.2290699619       -1.0842051463        0.7055021332  CLST      76              1.0000000000
       379        76  DCM       CL1             0.9534530622       -1.7854215562        0.4958062725  CLST      76              1.0000000000
       380        76  DCM       CL2             2.0865292118        0.8317899584       -0.1518501563  CLST      76              1.0000000000
       381        77  DCM       C               3.0693321384       -0.6551797969        1.5499174647  CLST      77              1.0000000000
       382        77  DCM       H1              3.5985155245       -0.3727939502        0.6155056589  CLST      77              1.0000000000
       383        77  DCM       H2              3.4292072024       -1.6352649908        1.9275173880  CLST      77              1.0000000000
       384        77  DCM       CL1             3.3708878234        0.5926326479        2.7911974878  CLST      77              1.0000000000
       385        77  DCM       CL2             1.3167049730       -0.7664555262        1.2159580360  CLST      77              1.0000000000
       386        78  DCM       C               1.1650780561        2.5143257028       -1.7197229350  CLST      78              1.0000000000
       387        78  DCM       H1              0.4869590903        1.6413767851       -1.8299575679  CLST      78              1.0000000000
       388        78  DCM       H2              0.7422515147        3.2607591978       -1.0161327939  CLST      78              1.0000000000
       389        78  DCM       CL1             2.7400793005        1.9517194956       -1.0904892424  CLST      78              1.0000000000
       390        78  DCM       CL2             1.3909275661        3.2844270230       -3.3168748483  CLST      78              1.0000000000
       391        79  DCM       C               0.6098197132        0.4054143816        1.6261911642  CLST      79              1.0000000000
       392        79  DCM       H1             -0.1780712334        0.1635156974        2.3694422189  CLST      79              1.0000000000
       393        79  DCM       H2              0.2438789833        0.2400756694        0.5903921534  CLST      79              1.0000000000
       394        79  DCM       CL1             1.0790246212        2.1209596618        1.8138469705  CLST      79              1.0000000000
       395        79  DCM       CL2             2.0260096364       -0.6459017206        1.9186976285  CLST      79              1.0000000000
       396        80  DCM       C               2.2479145318        1.1941914547       -0.5470408174  CLST      80              1.0000000000
       397        80  DCM       H1              2.3599783062        0.5477502471       -1.4428130017  CLST      80              1.0000000000
       398        80  DCM       H2              1.1782584273        1.3196469047       -0.2774563398  CLST      80              1.0000000000
       399        80  DCM       CL1             3.1063708412        0.4404752898        0.8277417941  CLST      80              1.0000000000
       400        80  DCM       CL2             2.9531225097        2.7998642859       -0.8960357271  CLST      80              1.0000000000
       401        81  DCM       C              -2.8701038736        2.7702050268        0.8094438428  CLST      81              1.0000000000
       402        81  DCM       H1             -3.9656965142        2.6288506894        0.7108031389  CLST      81              1.0000000000
       403        81  DCM       H2             -2.5648713616        3.7925096614        0.5021248237  CLST      81              1.0000000000
       404        81  DCM       CL1            -2.3976128775        2.5129886553        2.5110148858  CLST      81              1.0000000000
       405        81  DCM       CL2            -2.0483719371        1.5723712774       -0.2269713136  CLST      81              1.0000000000
       406        82  DCM       C              -3.2254171982       -2.2583889889       -0.2223340566  CLST      82              1.0000000000
       407        82  DCM       H1             -3.0121892803       -2.9993908751       -1.0214353611  CLST      82              1.0000000000
       408        82  DCM       H2             -4.0549629656       -1.5817896357       -0.5163402548  CLST      82              1.0000000000
       409        82  DCM       CL1            -3.6857804179       -3.1269595883        1.2704289647  CLST      82              1.0000000000
       410        82  DCM       CL2            -1.7577952342       -1.2824482928        0.0703367960  CLST      82              1.0000000000
       411        83  DCM       C               1.4653337598        0.8208496877        0.1388102807  CLST      83              1.0000000000
       412        83  DCM       H1              2.4416023488        0.9701365408       -0.3732205823  CLST      83              1.0000000000
       413        83  DCM       H2              0.7378907841        0.3131206284       -0.5289317815  CLST      83              1.0000000000
       414        83  DCM       CL1             1.7176899914       -0.1911211745        1.5902956468  CLST      83              1.0000000000
       415        83  DCM       CL2             0.8027719218        2.4106753123        0.6191314716  CLST      83              1.0000000000
       416        84  DCM       C               1.7085716071        1.9084150898        0.1182254304  CLST      84              1.0000000000
       417        84  DCM       H1              2.6554661605        2.3267705519        0.5204642503  CLST      84              1.0000000000
       418        84  DCM       H2              1.9114671161        1.1217090840       -0.6388821634  CLST      84              1.0000000000
       419        84  DCM       CL1             0.7680869570        1.1946339099        1.4596242202  CLST      84              1.0000000000
       420        84  DCM       CL2             0.7679725933        3.2221329102       -0.6458494818  CLST      84              1.0000000000
       421        85  DCM       C              -2.1860085488       -1.7757527986       -0.8011944358  CLST      85              1.0000000000
       422        85  DCM       H1             -2.7144471392       -2.7052625383       -1.1012378115  CLST      85              1.0000000000
       423        85  DCM       H2             -2.7013499162       -1.2739859506        0.0448454470  CLST      85              1.0000000000
       424        85  DCM       CL1            -0.5214092870       -2.1870015418       -0.3003263483  CLST      85              1.0000000000
       425        85  DCM       CL2            -2.1454082335       -0.6598146530       -2.1943580849  CLST      85              1.0000000000
       426        86  DCM       C              -1.4635721489       -2.2634755002        2.7421938299  CLST      86              1.0000000000
       427        86  DCM       H1             -2.1020804653       -2.8536471095        3.4333380028  CLST      86              1.0000000000
       428        86  DCM       H2             -1.0705658056       -1.3533050092        3.2427317889  CLST      86              1.0000000000
       429        86  DCM       CL1            -0.0919404299       -3.2784710862        2.2165259324  CLST      86              1.0000000000
       430        86  DCM       CL2            -2.4348514195       -1.7714920718        1.3283874122  CLST      86              1.0000000000
       431        87  DCM       C              -0.8290852412       -0.4745651750       -0.9070846850  CLST      87              1.0000000000
       432        87  DCM       H1             -0.7559513600       -1.4535208765       -0.3886116938  CLST      87              1.0000000000
       433        87  DCM       H2              0.0497250948       -0.3032457280       -1.5646443980  CLST      87              1.0000000000
       434        87  DCM       CL1            -2.3123713995       -0.4574094378       -1.9030649627  CLST      87              1.0000000000
       435        87  DCM       CL2            -0.9036395472        0.8224303896        0.3180231482  CLST      87              1.0000000000
       436        88  DCM       C              -1.7578420854        2.5773313722        2.6792307288  CLST      88              1.0000000000
       437        88  DCM       H1             -1.4912312604        2.0530548648        1.7379320241  CLST      88              1.0000000000
       438        88  DCM       H2             -2.8227151743        2.4083238348        2.9422467404  CLST      88              1.0000000000
       439        88  DCM       CL1            -0.7274306138        1.9560940224        3.9981195326  CLST      88              1.0000000000
       440        88  DCM       CL2            -1.4836947606        4.3289614622        2.4632204004  CLST      88              1.0000000000
       441        89  DCM       C              -0.8879225390        1.5233095971        2.9017548400  CLST      89              1.0000000000
       442        89  DCM       H1             -0.3477120467        0.7663223782        2.2966326089  CLST      89              1.0000000000
       443        89  DCM       H2             -1.9744293775        1.2980732784        2.9398785062  CLST      89              1.0000000000
       444        89  DCM       CL1            -0.6523426944        3.1323308990        2.1615187228  CLST      89              1.0000000000
       445        89  DCM       CL2            -0.2280573417        1.5084634001        4.5617260397  CLST      89              1.0000000000
       446        90  DCM       C              -3.5178541974        3.1400737564        2.2917758300  CLST      90              1.0000000000
       447        90  DCM       H1             -4.0995837976        2.8643446100        1.3876648955  CLST      90              1.0000000000
       448        90  DCM       H2             -3.4668140321        4.2428534361        2.4102233380  CLST      90              1.0000000000
       449        90  DCM       CL1            -4.3077480984        2.4339013733        3.7322069812  CLST      90              1.0000000000
       450        90  DCM       CL2            -1.8592276517        2.4928625473        2.1350678819  CLST      90              1.0000000000
       451        91  DCM       C               2.1371667712       -0.6549561805       -1.4230434649  CLST      91              1.0000000000
       452        91  DCM       H1              2.2772931609       -1.3343059682       -0.5564846319  CLST      91              1.0000000000
       453        91  DCM       H2              1.4918207911        0.2072613356       -1.1574115703  CLST      91              1.0000000000
       454        91  DCM       CL1             3.7323967748       -0.0407308354       -1.9452590696  CLST      91              1.0000000000
       455        91  DCM       CL2             1.3679997246       -1.5635760459       -2.7559294317  CLST      91              1.0000000000
       456        92  DCM       C              -1.4160679223        2.7993913748       -1.5858652301  CLST      92              1.0000000000
       457        92  DCM       H1             -2.3005181749        2.3004538825       -2.0468104177  CLST      92              1.0000000000
       458        92  DCM       H2             -1.4737481074        3.9082383229       -1.6929558760  CLST      92              1.0000000000
       459        92  DCM       CL1            -1.3636002047        2.3852837420        0.1490703921  CLST      92              1.0000000000
       460        92  DCM       CL2             0.0796140534        2.2119296329       -2.3742177936  CLST      92              1.0000000000
       461        93  DCM       C              -1.6772764119       -1.5050033324        2.5309548631  CLST      93              1.0000000000
       462        93  DCM       H1             -2.7071114813       -1.2004280338        2.8104951086  CLST      93              1.0000000000
       463        93  DCM       H2             -1.2602039274       -0.8334243301        1.7511173909  CLST      93              1.0000000000
       464        93  DCM       CL1            -1.7167641690       -3.1755487990        1.9060370160  CLST      93              1.0000000000
       465        93  DCM       CL2            -0.6435586118       -1.4357836925        3.9833400889  CLST      93              1.0000000000
       466        94  DCM       C              -2.0321083327        2.4986413470       -2.8355153598  CLST      94              1.0000000000
       467        94  DCM       H1             -2.3142957166        3.2196865941       -3.6319355413  CLST      94              1.0000000000
       468        94  DCM       H2             -1.6299334725        1.5608968717       -3.2719732525  CLST      94              1.0000000000
       469        94  DCM       CL1            -0.7806465311        3.2384699650       -1.7953436937  CLST      94              1.0000000000
       470        94  DCM       CL2            -3.4791782124        2.1100987631       -1.8610952777  CLST      94              1.0000000000
       471        95  DCM       C               3.1802045302        2.1319819982       -2.8401315629  CLST      95              1.0000000000
       472        95  DCM       H1              2.2646202295        1.6071628415       -2.4903184008  CLST      95              1.0000000000
       473        95  DCM       H2              2.9276834902        2.9497372815       -3.5483063367  CLST      95              1.0000000000
       474        95  DCM       CL1             4.0278605993        2.8286608074       -1.4290543001  CLST      95              1.0000000000
       475        95  DCM       CL2             4.2496080691        0.9616322494       -3.6681682457  CLST      95              1.0000000000
