* PRE_MLPOT:MONOMER_REPACK
*  DATE:     6/28/26      2: 2:53      CREATED BY USER: boittier
*
       475  EXT
         1         1  DCM       C              -1.8855132147       -1.3356226681        0.2273827704  CLST      1               1.0000000000
         2         1  DCM       H1             -1.6795664514       -1.7238153178       -0.7914073188  CLST      1               1.0000000000
         3         1  DCM       H2             -0.9556134377       -1.2857610453        0.8339975226  CLST      1               1.0000000000
         4         1  DCM       CL1            -2.5791124265        0.3062670416        0.0919333836  CLST      1               1.0000000000
         5         1  DCM       CL2            -3.0513409161       -2.4208377085        1.0412139260  CLST      1               1.0000000000
         6         2  DCM       C               0.7032668018       -0.1071715417        0.7308578362  CLST      2               1.0000000000
         7         2  DCM       H1              1.4801238696       -0.8821317906        0.5594487841  CLST      2               1.0000000000
         8         2  DCM       H2              0.5396335176        0.0593915638        1.8144236315  CLST      2               1.0000000000
         9         2  DCM       CL1             1.2357114259        1.4273143370       -0.0134832097  CLST      2               1.0000000000
        10         2  DCM       CL2            -0.8298853773       -0.6464243663       -0.0127663974  CLST      2               1.0000000000
        11         3  DCM       C              -1.2881211011       -2.7542418078        2.0684556168  CLST      3               1.0000000000
        12         3  DCM       H1             -2.2268680586       -3.2319317148        2.4217587908  CLST      3               1.0000000000
        13         3  DCM       H2             -0.4022313897       -3.3659287166        2.3393158159  CLST      3               1.0000000000
        14         3  DCM       CL1            -1.3531208923       -2.5848132300        0.2898897057  CLST      3               1.0000000000
        15         3  DCM       CL2            -1.1343394382       -1.1409684320        2.8245163280  CLST      3               1.0000000000
        16         4  DCM       C              -0.1583397110       -0.2729975051       -1.5850549689  CLST      4               1.0000000000
        17         4  DCM       H1             -0.2311956562        0.7908400770       -1.8920818733  CLST      4               1.0000000000
        18         4  DCM       H2              0.7706226705       -0.4600909731       -1.0076162908  CLST      4               1.0000000000
        19         4  DCM       CL1            -1.5688693386       -0.6809863130       -0.5662720169  CLST      4               1.0000000000
        20         4  DCM       CL2            -0.1567080882       -1.3027761432       -3.0473620422  CLST      4               1.0000000000
        21         5  DCM       C              -1.5640917624        2.0958885927       -1.8135211476  CLST      5               1.0000000000
        22         5  DCM       H1             -0.8863918964        1.8177492415       -2.6475624139  CLST      5               1.0000000000
        23         5  DCM       H2             -1.1881439760        1.6986318743       -0.8472283563  CLST      5               1.0000000000
        24         5  DCM       CL1            -3.1872550933        1.4161167994       -2.1300795937  CLST      5               1.0000000000
        25         5  DCM       CL2            -1.6636917058        3.8782101435       -1.7143690052  CLST      5               1.0000000000
        26         6  DCM       C               1.6302209162       -2.7503344930       -1.9321031160  CLST      6               1.0000000000
        27         6  DCM       H1              1.7368500371       -2.0222982482       -1.1006668094  CLST      6               1.0000000000
        28         6  DCM       H2              0.9401551811       -2.3689550980       -2.7138012425  CLST      6               1.0000000000
        29         6  DCM       CL1             3.2359116754       -3.0310571613       -2.6617545537  CLST      6               1.0000000000
        30         6  DCM       CL2             0.9817751366       -4.2844230344       -1.2851180395  CLST      6               1.0000000000
        31         7  DCM       C               3.1044777503        0.0740852177       -0.3345401764  CLST      7               1.0000000000
        32         7  DCM       H1              3.3271614450       -0.4895136988        0.5962540383  CLST      7               1.0000000000
        33         7  DCM       H2              4.0367081106        0.4480101034       -0.8086366315  CLST      7               1.0000000000
        34         7  DCM       CL1             2.2624847354       -1.0082847630       -1.4818136019  CLST      7               1.0000000000
        35         7  DCM       CL2             2.0564766695        1.4664565296        0.0653495256  CLST      7               1.0000000000
        36         8  DCM       C              -1.0495602660        2.6510023142        2.6116944740  CLST      8               1.0000000000
        37         8  DCM       H1             -2.0975658227        2.7470292493        2.2584444194  CLST      8               1.0000000000
        38         8  DCM       H2             -0.3785756811        3.3426292352        2.0620824632  CLST      8               1.0000000000
        39         8  DCM       CL1            -0.9937579078        3.0396183079        4.3536119902  CLST      8               1.0000000000
        40         8  DCM       CL2            -0.4953383345        0.9761030329        2.3417451382  CLST      8               1.0000000000
        41         9  DCM       C              -1.3033760600        0.1460040971        0.5430552569  CLST      9               1.0000000000
        42         9  DCM       H1             -1.8745787704        0.8766909066        1.1532134496  CLST      9               1.0000000000
        43         9  DCM       H2             -0.4054935196       -0.2102655608        1.0894181085  CLST      9               1.0000000000
        44         9  DCM       CL1            -2.3528081800       -1.2541009383        0.1736327045  CLST      9               1.0000000000
        45         9  DCM       CL2            -0.7898597548        0.9345556290       -0.9770224032  CLST      9               1.0000000000
        46        10  DCM       C              -2.8357617132       -0.0613363341       -2.5750966840  CLST      10              1.0000000000
        47        10  DCM       H1             -1.9878568111        0.6000323125       -2.3022574582  CLST      10              1.0000000000
        48        10  DCM       H2             -2.9401807528       -0.8948455238       -1.8490869887  CLST      10              1.0000000000
        49        10  DCM       CL1            -4.3392824017        0.9028852500       -2.5759844516  CLST      10              1.0000000000
        50        10  DCM       CL2            -2.5432829535       -0.7342951013       -4.2038583775  CLST      10              1.0000000000
        51        11  DCM       C               2.4093619665       -2.4682356066       -2.1585803877  CLST      11              1.0000000000
        52        11  DCM       H1              2.5152360911       -1.4848858151       -1.6525535818  CLST      11              1.0000000000
        53        11  DCM       H2              3.1757490829       -3.1866613796       -1.7980709489  CLST      11              1.0000000000
        54        11  DCM       CL1             0.7839706089       -3.1286197425       -1.8122496666  CLST      11              1.0000000000
        55        11  DCM       CL2             2.6093273232       -2.2416024459       -3.9212846623  CLST      11              1.0000000000
        56        12  DCM       C               1.7402869746       -2.4518503827       -1.7898387623  CLST      12              1.0000000000
        57        12  DCM       H1              2.7939963961       -2.3656429231       -1.4560122973  CLST      12              1.0000000000
        58        12  DCM       H2              1.6118208932       -2.0501565815       -2.8170353966  CLST      12              1.0000000000
        59        12  DCM       CL1             0.7001936657       -1.5304156792       -0.6667200268  CLST      12              1.0000000000
        60        12  DCM       CL2             1.2658599919       -4.1739003019       -1.7759701106  CLST      12              1.0000000000
        61        13  DCM       C              -1.0948648313        1.4086279296       -2.5540695141  CLST      13              1.0000000000
        62        13  DCM       H1             -0.1109155361        1.6952750810       -2.1253941359  CLST      13              1.0000000000
        63        13  DCM       H2             -1.4443065832        0.4397625654       -2.1412983975  CLST      13              1.0000000000
        64        13  DCM       CL1            -2.2922592708        2.6738843922       -2.1583966697  CLST      13              1.0000000000
        65        13  DCM       CL2            -0.9405991633        1.2553835787       -4.3273909872  CLST      13              1.0000000000
        66        14  DCM       C              -1.3361160681        2.1478178207       -1.1720107647  CLST      14              1.0000000000
        67        14  DCM       H1             -1.2708440816        2.4668718845       -2.2334903239  CLST      14              1.0000000000
        68        14  DCM       H2             -0.5232349208        2.6011271739       -0.5683101063  CLST      14              1.0000000000
        69        14  DCM       CL1            -1.1886633303        0.3722318981       -1.0825040800  CLST      14              1.0000000000
        70        14  DCM       CL2            -2.9115804818        2.6590730503       -0.5020687791  CLST      14              1.0000000000
        71        15  DCM       C               2.6355575482        0.6124401537        1.2151727687  CLST      15              1.0000000000
        72        15  DCM       H1              3.2301045335        0.2370704603        2.0760584283  CLST      15              1.0000000000
        73        15  DCM       H2              1.9094128900       -0.1502946420        0.8660352759  CLST      15              1.0000000000
        74        15  DCM       CL1             1.7425186198        2.0746270834        1.7209752253  CLST      15              1.0000000000
        75        15  DCM       CL2             3.7463352707        1.0158464480       -0.1253788976  CLST      15              1.0000000000
        76        16  DCM       C               0.9563438481       -1.4303310261       -3.6947853822  CLST      16              1.0000000000
        77        16  DCM       H1              0.2961191921       -0.9815370078       -4.4666262757  CLST      16              1.0000000000
        78        16  DCM       H2              1.6862000144       -0.6866599097       -3.3122993493  CLST      16              1.0000000000
        79        16  DCM       CL1            -0.0416255737       -2.0241568185       -2.3362240584  CLST      16              1.0000000000
        80        16  DCM       CL2             1.8545698355       -2.7865044582       -4.4206878448  CLST      16              1.0000000000
        81        17  DCM       C              -2.4226569600        0.9284655793       -1.8878264150  CLST      17              1.0000000000
        82        17  DCM       H1             -1.3217479298        1.0773702531       -1.8886836072  CLST      17              1.0000000000
        83        17  DCM       H2             -2.7763704800        0.5551405508       -2.8710038655  CLST      17              1.0000000000
        84        17  DCM       CL1            -2.8437539819       -0.2684052955       -0.6282741331  CLST      17              1.0000000000
        85        17  DCM       CL2            -3.2162341729        2.4916641351       -1.5325210205  CLST      17              1.0000000000
        86        18  DCM       C              -1.7581003968       -0.8451186133       -1.9595555081  CLST      18              1.0000000000
        87        18  DCM       H1             -2.4113378691       -1.7313347452       -2.0997090783  CLST      18              1.0000000000
        88        18  DCM       H2             -1.8189553596       -0.1642032132       -2.8353482909  CLST      18              1.0000000000
        89        18  DCM       CL1            -2.2806242910        0.0375575696       -0.4947122866  CLST      18              1.0000000000
        90        18  DCM       CL2            -0.0670598218       -1.3900503819       -1.7650224228  CLST      18              1.0000000000
        91        19  DCM       C               2.0665699950        2.0322892631        3.0229163633  CLST      19              1.0000000000
        92        19  DCM       H1              1.0212182072        1.9165933045        2.6668880329  CLST      19              1.0000000000
        93        19  DCM       H2              2.2301439475        1.4672790282        3.9644205168  CLST      19              1.0000000000
        94        19  DCM       CL1             3.1835562584        1.4129633760        1.7734245911  CLST      19              1.0000000000
        95        19  DCM       CL2             2.3922828236        3.7650606998        3.3176213147  CLST      19              1.0000000000
        96        20  DCM       C              -0.5548275475        2.9633316833       -0.8863012648  CLST      20              1.0000000000
        97        20  DCM       H1             -1.6438122274        2.7821417390       -0.9931314028  CLST      20              1.0000000000
        98        20  DCM       H2             -0.2954475142        3.9998497588       -1.1854648933  CLST      20              1.0000000000
        99        20  DCM       CL1            -0.0861810420        2.7229637527        0.8220941188  CLST      20              1.0000000000
       100        20  DCM       CL2             0.3368031581        1.8193354174       -1.9334841943  CLST      20              1.0000000000
       101        21  DCM       C              -0.2453435160       -1.0242568553        0.0045969222  CLST      21              1.0000000000
       102        21  DCM       H1             -0.9059762384       -1.8957868489       -0.1798796724  CLST      21              1.0000000000
       103        21  DCM       H2             -0.8414705346       -0.0995692187        0.1368761085  CLST      21              1.0000000000
       104        21  DCM       CL1             0.7008147663       -1.3186755710        1.4884400430  CLST      21              1.0000000000
       105        21  DCM       CL2             0.8576373848       -0.8164696375       -1.3854167704  CLST      21              1.0000000000
       106        22  DCM       C               0.8143291987       -1.6149257739       -2.0436324135  CLST      22              1.0000000000
       107        22  DCM       H1              1.7186644689       -0.9836372800       -1.9179260867  CLST      22              1.0000000000
       108        22  DCM       H2              1.0659824593       -2.6934599596       -1.9628159573  CLST      22              1.0000000000
       109        22  DCM       CL1            -0.3683936873       -1.1957961190       -0.7707296759  CLST      22              1.0000000000
       110        22  DCM       CL2             0.1079922334       -1.2997281273       -3.6549727102  CLST      22              1.0000000000
       111        23  DCM       C               1.8967429931       -0.0681744736        1.6796254171  CLST      23              1.0000000000
       112        23  DCM       H1              1.6746507040       -1.0876394924        1.3016568155  CLST      23              1.0000000000
       113        23  DCM       H2              2.4419004750       -0.1102561229        2.6461284999  CLST      23              1.0000000000
       114        23  DCM       CL1             2.9083378325        0.7838130820        0.4797191079  CLST      23              1.0000000000
       115        23  DCM       CL2             0.3622480513        0.8181643975        1.9132059515  CLST      23              1.0000000000
       116        24  DCM       C               1.9928911338        2.9731504667        1.8144614763  CLST      24              1.0000000000
       117        24  DCM       H1              1.3350551693        2.5125444404        1.0474631158  CLST      24              1.0000000000
       118        24  DCM       H2              1.9117451729        4.0799616548        1.7982546356  CLST      24              1.0000000000
       119        24  DCM       CL1             1.5086936123        2.3779707801        3.4284542742  CLST      24              1.0000000000
       120        24  DCM       CL2             3.6868682141        2.5105202622        1.4824736199  CLST      24              1.0000000000
       121        25  DCM       C              -1.9808291675       -2.4870873664        0.3090887681  CLST      25              1.0000000000
       122        25  DCM       H1             -0.9925735945       -2.9546779338        0.1151989867  CLST      25              1.0000000000
       123        25  DCM       H2             -2.4746971357       -2.1847187303       -0.6378352476  CLST      25              1.0000000000
       124        25  DCM       CL1            -3.0212741121       -3.6653706149        1.1610537682  CLST      25              1.0000000000
       125        25  DCM       CL2            -1.7451778999       -1.0407673304        1.3321881466  CLST      25              1.0000000000
       126        26  DCM       C               0.8423930265       -2.0758635175        0.1673059610  CLST      26              1.0000000000
       127        26  DCM       H1              0.8497816084       -2.8286184270       -0.6483912020  CLST      26              1.0000000000
       128        26  DCM       H2              0.3600223257       -1.1331200970       -0.1662396817  CLST      26              1.0000000000
       129        26  DCM       CL1            -0.0642292108       -2.7317351131        1.5609015349  CLST      26              1.0000000000
       130        26  DCM       CL2             2.5255187968       -1.7296552958        0.6556430812  CLST      26              1.0000000000
       131        27  DCM       C               0.5257450403        2.8002330760       -1.4699733217  CLST      27              1.0000000000
       132        27  DCM       H1             -0.1732056450        3.4461169150       -2.0406982463  CLST      27              1.0000000000
       133        27  DCM       H2              1.5797702959        3.0660387190       -1.6856451586  CLST      27              1.0000000000
       134        27  DCM       CL1             0.2175568913        3.0181381380        0.2773928502  CLST      27              1.0000000000
       135        27  DCM       CL2             0.2469089590        1.0936365017       -1.9289269408  CLST      27              1.0000000000
       136        28  DCM       C              -0.4891677362        0.9116598391       -1.2569497961  CLST      28              1.0000000000
       137        28  DCM       H1              0.2909704885        1.5604469382       -0.8064998137  CLST      28              1.0000000000
       138        28  DCM       H2             -1.2038743999        1.5078732113       -1.8619261579  CLST      28              1.0000000000
       139        28  DCM       CL1             0.3023829871       -0.2940567856       -2.3121191854  CLST      28              1.0000000000
       140        28  DCM       CL2            -1.3844166276        0.0842967594        0.0509086033  CLST      28              1.0000000000
       141        29  DCM       C              -2.8537391917       -1.9054617383       -1.2671348911  CLST      29              1.0000000000
       142        29  DCM       H1             -2.5586507588       -0.8472207214       -1.4163827834  CLST      29              1.0000000000
       143        29  DCM       H2             -3.7891541174       -1.9792045057       -0.6765474233  CLST      29              1.0000000000
       144        29  DCM       CL1            -3.1140585515       -2.6724308669       -2.8605712440  CLST      29              1.0000000000
       145        29  DCM       CL2            -1.5395312590       -2.7497396233       -0.3981438524  CLST      29              1.0000000000
       146        30  DCM       C               2.6664810752        2.1847818083        0.2098456613  CLST      30              1.0000000000
       147        30  DCM       H1              3.3052377428        1.3706966627        0.6063079706  CLST      30              1.0000000000
       148        30  DCM       H2              3.0970842465        3.1788491594        0.4462880273  CLST      30              1.0000000000
       149        30  DCM       CL1             2.5469075775        2.0058605874       -1.5645142562  CLST      30              1.0000000000
       150        30  DCM       CL2             1.0441172291        2.0582010528        0.9496328583  CLST      30              1.0000000000
       151        31  DCM       C               0.8079119293        1.0870099248        1.7880852122  CLST      31              1.0000000000
       152        31  DCM       H1              0.2034565287        0.8013020476        2.6740025957  CLST      31              1.0000000000
       153        31  DCM       H2              0.9996075660        2.1808572262        1.7704836037  CLST      31              1.0000000000
       154        31  DCM       CL1             2.3735691406        0.2256396471        1.8449791184  CLST      31              1.0000000000
       155        31  DCM       CL2            -0.0819925432        0.6263833311        0.3079018345  CLST      31              1.0000000000
       156        32  DCM       C               0.2166481150       -1.7563286445       -1.1160699685  CLST      32              1.0000000000
       157        32  DCM       H1              1.0321850438       -2.3871750364       -1.5296764181  CLST      32              1.0000000000
       158        32  DCM       H2             -0.5645915656       -2.3772466548       -0.6290402557  CLST      32              1.0000000000
       159        32  DCM       CL1             0.9078714252       -0.6392371651        0.0967495118  CLST      32              1.0000000000
       160        32  DCM       CL2            -0.5294074004       -0.8253638311       -2.4477158805  CLST      32              1.0000000000
       161        33  DCM       C              -2.4887699732       -1.7287871328       -0.0953993857  CLST      33              1.0000000000
       162        33  DCM       H1             -2.1723812414       -2.7473173457       -0.4046552256  CLST      33              1.0000000000
       163        33  DCM       H2             -1.6206455385       -1.0390553092       -0.0570156378  CLST      33              1.0000000000
       164        33  DCM       CL1            -3.6793801423       -1.1127103841       -1.2745628456  CLST      33              1.0000000000
       165        33  DCM       CL2            -3.2366071821       -1.8177997523        1.5250014037  CLST      33              1.0000000000
       166        34  DCM       C               2.3597044691       -1.4512158308       -0.7814562919  CLST      34              1.0000000000
       167        34  DCM       H1              2.2114509337       -0.9238545592        0.1839202785  CLST      34              1.0000000000
       168        34  DCM       H2              3.1903313626       -0.9978016272       -1.3593644763  CLST      34              1.0000000000
       169        34  DCM       CL1             0.8538856331       -1.3489853821       -1.7432429295  CLST      34              1.0000000000
       170        34  DCM       CL2             2.7586477151       -3.1630070319       -0.4551864307  CLST      34              1.0000000000
       171        35  DCM       C               1.6233846134        1.8492561357       -1.8906164633  CLST      35              1.0000000000
       172        35  DCM       H1              0.6757039657        2.2192105323       -2.3327008300  CLST      35              1.0000000000
       173        35  DCM       H2              1.9455757680        2.4909139335       -1.0448719979  CLST      35              1.0000000000
       174        35  DCM       CL1             1.3795400062        0.1851074096       -1.2893858172  CLST      35              1.0000000000
       175        35  DCM       CL2             2.8896738987        1.8572153890       -3.1506349727  CLST      35              1.0000000000
       176        36  DCM       C               0.4925908044        0.4582388119        3.1357499495  CLST      36              1.0000000000
       177        36  DCM       H1              0.0179880339        0.8042960420        4.0790261771  CLST      36              1.0000000000
       178        36  DCM       H2              0.3582897769        1.2044659397        2.3255622540  CLST      36              1.0000000000
       179        36  DCM       CL1             2.2406421170        0.2139837519        3.4176438121  CLST      36              1.0000000000
       180        36  DCM       CL2            -0.2644882091       -1.0814622735        2.6350014103  CLST      36              1.0000000000
       181        37  DCM       C              -2.4489266233        2.1351857386        0.1961153790  CLST      37              1.0000000000
       182        37  DCM       H1             -1.5892179190        1.6350184726        0.6888254664  CLST      37              1.0000000000
       183        37  DCM       H2             -2.7594485575        1.5854129704       -0.7171470628  CLST      37              1.0000000000
       184        37  DCM       CL1            -3.8225161834        2.1893689741        1.3377122862  CLST      37              1.0000000000
       185        37  DCM       CL2            -1.9827931828        3.8008653566       -0.2579884480  CLST      37              1.0000000000
       186        38  DCM       C               0.7852446493        2.9994247768        1.8019222460  CLST      38              1.0000000000
       187        38  DCM       H1              0.5768271681        3.2909247989        2.8523348067  CLST      38              1.0000000000
       188        38  DCM       H2             -0.0490560990        2.3969772750        1.3848110621  CLST      38              1.0000000000
       189        38  DCM       CL1             0.9960136687        4.4674038784        0.8070204720  CLST      38              1.0000000000
       190        38  DCM       CL2             2.2819513053        2.0279404374        1.7490385334  CLST      38              1.0000000000
       191        39  DCM       C              -1.6350019866       -1.8320350916        1.4979542342  CLST      39              1.0000000000
       192        39  DCM       H1             -1.5460823577       -0.9747070525        2.1970149178  CLST      39              1.0000000000
       193        39  DCM       H2             -1.0038794285       -2.6860052494        1.8237518611  CLST      39              1.0000000000
       194        39  DCM       CL1            -3.3432534453       -2.3503042376        1.4415966613  CLST      39              1.0000000000
       195        39  DCM       CL2            -1.1024568374       -1.3077821103       -0.1237496170  CLST      39              1.0000000000
       196        40  DCM       C               2.0855441803       -2.8378833577        1.4233638131  CLST      40              1.0000000000
       197        40  DCM       H1              2.9384288959       -3.2808550658        0.8791609227  CLST      40              1.0000000000
       198        40  DCM       H2              1.1182690919       -3.2527376454        1.0692924015  CLST      40              1.0000000000
       199        40  DCM       CL1             2.0878534540       -1.0665893726        1.1628841610  CLST      40              1.0000000000
       200        40  DCM       CL2             2.2611787027       -3.1956086987        3.1686501543  CLST      40              1.0000000000
       201        41  DCM       C              -0.4327020327        0.8621522918        0.1830643797  CLST      41              1.0000000000
       202        41  DCM       H1             -1.0002682248        0.6469117332        1.1120351958  CLST      41              1.0000000000
       203        41  DCM       H2             -0.9646571044        0.4663637808       -0.7080731318  CLST      41              1.0000000000
       204        41  DCM       CL1            -0.2452655110        2.6317479531        0.0150367032  CLST      41              1.0000000000
       205        41  DCM       CL2             1.1733624880        0.0877320425        0.2917747961  CLST      41              1.0000000000
       206        42  DCM       C               2.2847131839        1.5496113989        2.2059792884  CLST      42              1.0000000000
       207        42  DCM       H1              1.8761996778        1.9112197686        1.2498163434  CLST      42              1.0000000000
       208        42  DCM       H2              3.1533514982        2.1647574951        2.5358625905  CLST      42              1.0000000000
       209        42  DCM       CL1             0.9996371026        1.6468838191        3.4479747449  CLST      42              1.0000000000
       210        42  DCM       CL2             2.8108592236       -0.1508463635        2.0139385686  CLST      42              1.0000000000
       211        43  DCM       C              -2.7350391668        0.9690250893        2.9553956391  CLST      43              1.0000000000
       212        43  DCM       H1             -3.6025896543        0.3350480672        2.6711649895  CLST      43              1.0000000000
       213        43  DCM       H2             -2.6636422091        1.0767815424        4.0575686481  CLST      43              1.0000000000
       214        43  DCM       CL1            -1.2385793254        0.2041934061        2.3487657019  CLST      43              1.0000000000
       215        43  DCM       CL2            -2.9318213131        2.5864331393        2.2197586896  CLST      43              1.0000000000
       216        44  DCM       C              -2.2433583397       -2.4754628330        2.3169631931  CLST      44              1.0000000000
       217        44  DCM       H1             -1.1882678802       -2.1340934724        2.2299013688  CLST      44              1.0000000000
       218        44  DCM       H2             -2.4745025575       -2.8024004185        3.3488949768  CLST      44              1.0000000000
       219        44  DCM       CL1            -3.3326430837       -1.1238745863        1.8834507381  CLST      44              1.0000000000
       220        44  DCM       CL2            -2.5117946764       -3.8424811842        1.1867632752  CLST      44              1.0000000000
       221        45  DCM       C              -0.5869302663       -0.6517698071        2.3109598158  CLST      45              1.0000000000
       222        45  DCM       H1             -1.1282616855       -0.6081877799        3.2782762947  CLST      45              1.0000000000
       223        45  DCM       H2             -0.6505055739       -1.6654493315        1.8626648024  CLST      45              1.0000000000
       224        45  DCM       CL1            -1.3166914984        0.5310070350        1.1869577588  CLST      45              1.0000000000
       225        45  DCM       CL2             1.1310878921       -0.2436133991        2.5888217584  CLST      45              1.0000000000
       226        46  DCM       C               0.3790628980        0.4511511879       -3.1863669443  CLST      46              1.0000000000
       227        46  DCM       H1              0.5070710010        1.5072994239       -2.8682651750  CLST      46              1.0000000000
       228        46  DCM       H2              1.3559273362       -0.0748421386       -3.2277940192  CLST      46              1.0000000000
       229        46  DCM       CL1            -0.6767381769       -0.3865089957       -2.0124026756  CLST      46              1.0000000000
       230        46  DCM       CL2            -0.3659050019        0.4201183643       -4.8104890545  CLST      46              1.0000000000
       231        47  DCM       C              -1.1417862502        0.8989044594        3.0800192046  CLST      47              1.0000000000
       232        47  DCM       H1             -2.2542482115        0.9549648991        3.1012252593  CLST      47              1.0000000000
       233        47  DCM       H2             -0.7045137103        1.5706890421        3.8445004653  CLST      47              1.0000000000
       234        47  DCM       CL1            -0.6277468322       -0.7804738355        3.4212983660  CLST      47              1.0000000000
       235        47  DCM       CL2            -0.5650128463        1.3789738380        1.4563980144  CLST      47              1.0000000000
       236        48  DCM       C              -0.0083745818       -0.1068810423       -1.7396230055  CLST      48              1.0000000000
       237        48  DCM       H1              0.1660310192        0.9837891116       -1.6249142926  CLST      48              1.0000000000
       238        48  DCM       H2              0.0685907411       -0.6270881506       -0.7608403288  CLST      48              1.0000000000
       239        48  DCM       CL1            -1.6437280582       -0.3731555500       -2.4078904283  CLST      48              1.0000000000
       240        48  DCM       CL2             1.2129929913       -0.7832958925       -2.8546457904  CLST      48              1.0000000000
       241        49  DCM       C               2.4471445301       -2.7496463881        2.3852562082  CLST      49              1.0000000000
       242        49  DCM       H1              3.0925648371       -2.4036601079        3.2213667758  CLST      49              1.0000000000
       243        49  DCM       H2              2.8766019442       -2.4629467310        1.4030503530  CLST      49              1.0000000000
       244        49  DCM       CL1             2.2998168636       -4.5257450280        2.4576900289  CLST      49              1.0000000000
       245        49  DCM       CL2             0.8317684002       -2.0099044336        2.5586430099  CLST      49              1.0000000000
       246        50  DCM       C              -0.7504002998        0.6468191153        0.5911285914  CLST      50              1.0000000000
       247        50  DCM       H1             -1.6559200501        0.0188457571        0.4685080885  CLST      50              1.0000000000
       248        50  DCM       H2             -0.4434926802        1.1027050513       -0.3719644810  CLST      50              1.0000000000
       249        50  DCM       CL1            -1.0914728779        1.9498968335        1.7665938240  CLST      50              1.0000000000
       250        50  DCM       CL2             0.5895315292       -0.3689171408        1.1924831916  CLST      50              1.0000000000
       251        51  DCM       C              -0.9964572179       -1.6589983810       -2.9008605586  CLST      51              1.0000000000
       252        51  DCM       H1             -1.5961034516       -2.0945307073       -3.7285943960  CLST      51              1.0000000000
       253        51  DCM       H2             -1.6507180385       -1.3366624449       -2.0630109182  CLST      51              1.0000000000
       254        51  DCM       CL1             0.1487684538       -2.8946275071       -2.3033941129  CLST      51              1.0000000000
       255        51  DCM       CL2            -0.0950723962       -0.2410589966       -3.5114380919  CLST      51              1.0000000000
       256        52  DCM       C               2.4756215027        2.7659142376       -1.8892919189  CLST      52              1.0000000000
       257        52  DCM       H1              2.9232658929        3.3855275554       -2.6921939238  CLST      52              1.0000000000
       258        52  DCM       H2              1.3794333430        2.6734466213       -2.0157028990  CLST      52              1.0000000000
       259        52  DCM       CL1             3.1945004289        1.1319617991       -1.9487489784  CLST      52              1.0000000000
       260        52  DCM       CL2             2.8181165082        3.5283481988       -0.3081371098  CLST      52              1.0000000000
       261        53  DCM       C               0.1497172254       -1.8433355049        3.0448564955  CLST      53              1.0000000000
       262        53  DCM       H1              0.2885381148       -2.0411531387        1.9609600749  CLST      53              1.0000000000
       263        53  DCM       H2              0.1479762712       -0.7526750142        3.2542150942  CLST      53              1.0000000000
       264        53  DCM       CL1            -1.4119835656       -2.5388678399        3.5675043129  CLST      53              1.0000000000
       265        53  DCM       CL2             1.4882982242       -2.6069861570        3.9517878978  CLST      53              1.0000000000
       266        54  DCM       C              -1.4605255221        2.2008411198        2.1329850691  CLST      54              1.0000000000
       267        54  DCM       H1             -1.4046437807        1.5657205847        3.0423077125  CLST      54              1.0000000000
       268        54  DCM       H2             -1.1409666165        1.6358902660        1.2316755240  CLST      54              1.0000000000
       269        54  DCM       CL1            -3.1476669797        2.7481500717        1.9119381476  CLST      54              1.0000000000
       270        54  DCM       CL2            -0.3883318539        3.6156101969        2.3427918528  CLST      54              1.0000000000
       271        55  DCM       C               2.0725854674       -0.1006124155        1.9960788694  CLST      55              1.0000000000
       272        55  DCM       H1              3.0846043059        0.1353858099        1.6102167057  CLST      55              1.0000000000
       273        55  DCM       H2              1.8591427345       -1.1878403738        1.9276708719  CLST      55              1.0000000000
       274        55  DCM       CL1             1.9749753246        0.4062766191        3.7074097653  CLST      55              1.0000000000
       275        55  DCM       CL2             0.8614510871        0.7922017941        1.0306869712  CLST      55              1.0000000000
       276        56  DCM       C              -2.7349793227        1.1720981110        0.9978224191  CLST      56              1.0000000000
       277        56  DCM       H1             -3.4047579414        0.3561554922        0.6513366621  CLST      56              1.0000000000
       278        56  DCM       H2             -2.3778002094        0.9771529284        2.0314110485  CLST      56              1.0000000000
       279        56  DCM       CL1            -1.3242061555        1.2741236390       -0.0942237861  CLST      56              1.0000000000
       280        56  DCM       CL2            -3.6318040372        2.7175452032        0.9732119975  CLST      56              1.0000000000
       281        57  DCM       C              -1.0323228374        1.4752689913        2.1116641208  CLST      57              1.0000000000
       282        57  DCM       H1             -0.9082010662        2.0124304835        3.0708007509  CLST      57              1.0000000000
       283        57  DCM       H2             -0.7665367255        0.3947633916        2.2242608632  CLST      57              1.0000000000
       284        57  DCM       CL1            -2.7340439574        1.5969554072        1.5804588610  CLST      57              1.0000000000
       285        57  DCM       CL2             0.0389491382        2.2025154555        0.8800514084  CLST      57              1.0000000000
       286        58  DCM       C               2.9314757559       -0.6123259111       -2.3791413698  CLST      58              1.0000000000
       287        58  DCM       H1              3.3371096795       -1.6032478240       -2.6625814298  CLST      58              1.0000000000
       288        58  DCM       H2              2.7203576546        0.0043024486       -3.2766505578  CLST      58              1.0000000000
       289        58  DCM       CL1             1.4174841282       -0.8598362346       -1.4645636742  CLST      58              1.0000000000
       290        58  DCM       CL2             4.1218817617        0.2399030218       -1.3528922787  CLST      58              1.0000000000
       291        59  DCM       C               1.9530471482        0.7789403959        1.6397367051  CLST      59              1.0000000000
       292        59  DCM       H1              2.9182324958        0.8548792329        1.0934252900  CLST      59              1.0000000000
       293        59  DCM       H2              1.9914689066       -0.0353094997        2.3950041474  CLST      59              1.0000000000
       294        59  DCM       CL1             0.6494859799        0.4363542813        0.4688638667  CLST      59              1.0000000000
       295        59  DCM       CL2             1.6352903870        2.3299328189        2.4604887596  CLST      59              1.0000000000
       296        60  DCM       C               0.3973486079        2.5471037356       -1.9317729908  CLST      60              1.0000000000
       297        60  DCM       H1              0.6452829163        1.6129538793       -1.3860270890  CLST      60              1.0000000000
       298        60  DCM       H2             -0.4034402688        3.1086651105       -1.4084152162  CLST      60              1.0000000000
       299        60  DCM       CL1             1.8596680191        3.5715264185       -2.0194080241  CLST      60              1.0000000000
       300        60  DCM       CL2            -0.1530318106        2.1341331600       -3.5829450300  CLST      60              1.0000000000
       301        61  DCM       C               0.8832733282       -1.1198476259        3.0023714408  CLST      61              1.0000000000
       302        61  DCM       H1              0.7180586380       -0.4191951970        2.1579117517  CLST      61              1.0000000000
       303        61  DCM       H2             -0.0824758718       -1.4910170278        3.4036575502  CLST      61              1.0000000000
       304        61  DCM       CL1             1.7641139325       -0.2650756896        4.3016722324  CLST      61              1.0000000000
       305        61  DCM       CL2             1.8500508198       -2.5114313558        2.4306908619  CLST      61              1.0000000000
       306        62  DCM       C               0.0412387996       -0.1420046235        1.4021018880  CLST      62              1.0000000000
       307        62  DCM       H1             -0.5099943028        0.7712291871        1.7101531397  CLST      62              1.0000000000
       308        62  DCM       H2             -0.5835350062       -1.0502402521        1.5353554096  CLST      62              1.0000000000
       309        62  DCM       CL1             0.4951206722        0.0053474229       -0.3216202460  CLST      62              1.0000000000
       310        62  DCM       CL2             1.5129327901       -0.2974122698        2.4060828831  CLST      62              1.0000000000
       311        63  DCM       C              -2.2466739932       -1.3039059883        2.4025117509  CLST      63              1.0000000000
       312        63  DCM       H1             -2.3581811376       -1.5913663546        3.4702790258  CLST      63              1.0000000000
       313        63  DCM       H2             -1.5317609071       -1.9721853097        1.8814434972  CLST      63              1.0000000000
       314        63  DCM       CL1            -3.8348854107       -1.4250767322        1.5959689657  CLST      63              1.0000000000
       315        63  DCM       CL2            -1.6475389482        0.3770494188        2.3073496458  CLST      63              1.0000000000
       316        64  DCM       C              -0.8905918090       -2.9539074646       -2.8596226689  CLST      64              1.0000000000
       317        64  DCM       H1             -0.6112877351       -2.2977215193       -2.0082592103  CLST      64              1.0000000000
       318        64  DCM       H2             -1.2450740809       -3.9437828573       -2.5028350291  CLST      64              1.0000000000
       319        64  DCM       CL1            -2.1974061901       -2.1688797061       -3.7903362525  CLST      64              1.0000000000
       320        64  DCM       CL2             0.5381492242       -3.1910938665       -3.9068819231  CLST      64              1.0000000000
       321        65  DCM       C              -2.6073850554        0.0146751975        1.1256742456  CLST      65              1.0000000000
       322        65  DCM       H1             -3.5279606592       -0.4285905250        0.6934334541  CLST      65              1.0000000000
       323        65  DCM       H2             -2.6331620916       -0.0173591455        2.2359853547  CLST      65              1.0000000000
       324        65  DCM       CL1            -2.4804040938        1.7148302002        0.5905845625  CLST      65              1.0000000000
       325        65  DCM       CL2            -1.1900236749       -0.9086459052        0.5493655018  CLST      65              1.0000000000
       326        66  DCM       C              -0.5898975185       -2.1370585021       -0.0904288473  CLST      66              1.0000000000
       327        66  DCM       H1             -0.1553646614       -1.3006062126        0.4926186238  CLST      66              1.0000000000
       328        66  DCM       H2             -1.1943061201       -1.7597617540       -0.9431905576  CLST      66              1.0000000000
       329        66  DCM       CL1             0.7388097917       -3.1410365056       -0.7246423835  CLST      66              1.0000000000
       330        66  DCM       CL2            -1.6276434398       -3.1203125741        0.9826631825  CLST      66              1.0000000000
       331        67  DCM       C               1.5650419789        0.7974786298       -0.8204762814  CLST      67              1.0000000000
       332        67  DCM       H1              2.6587268864        0.9694600805       -0.9030604903  CLST      67              1.0000000000
       333        67  DCM       H2              1.1826963498        1.1365274021        0.1646667084  CLST      67              1.0000000000
       334        67  DCM       CL1             0.7335648264        1.7072753615       -2.1142819146  CLST      67              1.0000000000
       335        67  DCM       CL2             1.2314405350       -0.9491753163       -0.9982913877  CLST      67              1.0000000000
       336        68  DCM       C              -1.0886330851       -0.6029774346       -2.2088717737  CLST      68              1.0000000000
       337        68  DCM       H1             -1.5267395912       -1.5965240258       -2.4424709859  CLST      68              1.0000000000
       338        68  DCM       H2             -1.5141343929        0.1838047416       -2.8635886650  CLST      68              1.0000000000
       339        68  DCM       CL1            -1.4391795306       -0.1995563813       -0.5018087289  CLST      68              1.0000000000
       340        68  DCM       CL2             0.6770061998       -0.6769593387       -2.4745615464  CLST      68              1.0000000000
       341        69  DCM       C               1.9499895241        1.8589579932       -3.0327935753  CLST      69              1.0000000000
       342        69  DCM       H1              2.9117861106        2.0779256326       -2.5242509591  CLST      69              1.0000000000
       343        69  DCM       H2              1.2853352722        2.7484946400       -3.0235317960  CLST      69              1.0000000000
       344        69  DCM       CL1             2.2838171288        1.3956240870       -4.7261146337  CLST      69              1.0000000000
       345        69  DCM       CL2             1.1375842061        0.5098198959       -2.1872347704  CLST      69              1.0000000000
       346        70  DCM       C              -2.8300943897        1.0414907212       -2.8345780021  CLST      70              1.0000000000
       347        70  DCM       H1             -2.9917556986        2.0863784769       -2.4899475233  CLST      70              1.0000000000
       348        70  DCM       H2             -3.5086122699        0.7954582105       -3.6753200817  CLST      70              1.0000000000
       349        70  DCM       CL1            -1.1386776138        0.8708830664       -3.3790122983  CLST      70              1.0000000000
       350        70  DCM       CL2            -3.1482143570       -0.0759462005       -1.4779510420  CLST      70              1.0000000000
       351        71  DCM       C               0.4531978454        2.6081428405       -0.2641257075  CLST      71              1.0000000000
       352        71  DCM       H1              1.0428366683        1.8592989752       -0.8404435133  CLST      71              1.0000000000
       353        71  DCM       H2             -0.5987069465        2.2823336999       -0.1516597702  CLST      71              1.0000000000
       354        71  DCM       CL1             1.1884374184        2.7946432797        1.3548546139  CLST      71              1.0000000000
       355        71  DCM       CL2             0.5021715867        4.1659932901       -1.1392730690  CLST      71              1.0000000000
       356        72  DCM       C              -3.0578085506       -1.4908209633       -2.5051106124  CLST      72              1.0000000000
       357        72  DCM       H1             -2.3213267894       -2.3191077328       -2.4484525741  CLST      72              1.0000000000
       358        72  DCM       H2             -3.9383480344       -1.6930953044       -1.8646860011  CLST      72              1.0000000000
       359        72  DCM       CL1            -2.2721124811        0.0182493986       -1.9522911890  CLST      72              1.0000000000
       360        72  DCM       CL2            -3.6029117758       -1.3182099040       -4.1992534548  CLST      72              1.0000000000
       361        73  DCM       C               1.9845986391       -1.9380753681        0.6057503689  CLST      73              1.0000000000
       362        73  DCM       H1              2.2740976865       -0.9254560268        0.9532293775  CLST      73              1.0000000000
       363        73  DCM       H2              1.2851354349       -1.8798436894       -0.2562830735  CLST      73              1.0000000000
       364        73  DCM       CL1             3.4521192511       -2.8251345964        0.0995504776  CLST      73              1.0000000000
       365        73  DCM       CL2             1.1834696677       -2.8066700486        1.9476081260  CLST      73              1.0000000000
       366        74  DCM       C              -1.6439441966        2.8539908833       -1.6446301637  CLST      74              1.0000000000
       367        74  DCM       H1             -1.1316102663        3.1718013258       -2.5776633944  CLST      74              1.0000000000
       368        74  DCM       H2             -1.4370049511        1.7868350825       -1.4194045492  CLST      74              1.0000000000
       369        74  DCM       CL1            -1.0587196857        3.8604449600       -0.2876195558  CLST      74              1.0000000000
       370        74  DCM       CL2            -3.4065252083        3.0737241248       -1.8452426866  CLST      74              1.0000000000
       371        75  DCM       C               0.0025990714        2.1395208359        2.5085483132  CLST      75              1.0000000000
       372        75  DCM       H1             -0.4970921852        1.4203296131        3.1917498495  CLST      75              1.0000000000
       373        75  DCM       H2              0.0585415718        3.1519956322        2.9643957635  CLST      75              1.0000000000
       374        75  DCM       CL1             1.6603155455        1.5641787985        2.1673516466  CLST      75              1.0000000000
       375        75  DCM       CL2            -0.9272954770        2.2387172300        0.9852973316  CLST      75              1.0000000000
       376        76  DCM       C               2.6363234798        1.9856191838       -0.8710960994  CLST      76              1.0000000000
       377        76  DCM       H1              2.7551279031        2.2909902984       -1.9323542510  CLST      76              1.0000000000
       378        76  DCM       H2              3.4681976753        2.3701652944       -0.2445004213  CLST      76              1.0000000000
       379        76  DCM       CL1             1.0931514136        2.6361929768       -0.2531785529  CLST      76              1.0000000000
       380        76  DCM       CL2             2.6232836635        0.2033672559       -0.7867554932  CLST      76              1.0000000000
       381        77  DCM       C              -3.5064002289        0.5837242015       -0.6910259145  CLST      77              1.0000000000
       382        77  DCM       H1             -3.9389854816        0.8863675458       -1.6684748011  CLST      77              1.0000000000
       383        77  DCM       H2             -3.0067508464        1.4423754611       -0.1950275317  CLST      77              1.0000000000
       384        77  DCM       CL1            -4.8173463582       -0.0162148179        0.3638882562  CLST      77              1.0000000000
       385        77  DCM       CL2            -2.3101233159       -0.7160866438       -0.9618881909  CLST      77              1.0000000000
       386        78  DCM       C              -2.5840320671        3.1271403299        1.8576276371  CLST      78              1.0000000000
       387        78  DCM       H1             -1.8086858325        2.7238307089        2.5417426818  CLST      78              1.0000000000
       388        78  DCM       H2             -2.7072073383        4.2223754116        1.9974257307  CLST      78              1.0000000000
       389        78  DCM       CL1            -2.0907905992        2.8061116865        0.1694805833  CLST      78              1.0000000000
       390        78  DCM       CL2            -4.1422202760        2.3173771233        2.1973188632  CLST      78              1.0000000000
       391        79  DCM       C               0.6159186570        1.3807238453        0.4738508642  CLST      79              1.0000000000
       392        79  DCM       H1              0.6032574449        0.7205641339       -0.4208116408  CLST      79              1.0000000000
       393        79  DCM       H2             -0.4158429291        1.6110597601        0.8123035124  CLST      79              1.0000000000
       394        79  DCM       CL1             1.4462534965        2.9075660580        0.0570178757  CLST      79              1.0000000000
       395        79  DCM       CL2             1.4929292482        0.5505602606        1.7912465513  CLST      79              1.0000000000
       396        80  DCM       C               2.4862210530       -2.8875439385       -0.5171341749  CLST      80              1.0000000000
       397        80  DCM       H1              2.6321735577       -3.9058382717       -0.9294307681  CLST      80              1.0000000000
       398        80  DCM       H2              2.0839606611       -2.9302503608        0.5169351756  CLST      80              1.0000000000
       399        80  DCM       CL1             4.0609645429       -2.0414853830       -0.5002765793  CLST      80              1.0000000000
       400        80  DCM       CL2             1.3288446534       -2.0095272107       -1.5568394990  CLST      80              1.0000000000
       401        81  DCM       C              -2.9876720148       -1.4603746969        2.8172972460  CLST      81              1.0000000000
       402        81  DCM       H1             -3.5682616160       -1.5779623351        1.8787218056  CLST      81              1.0000000000
       403        81  DCM       H2             -3.6600970092       -1.4170725856        3.7002140008  CLST      81              1.0000000000
       404        81  DCM       CL1            -1.8876684862       -2.8580196258        2.9997596829  CLST      81              1.0000000000
       405        81  DCM       CL2            -2.0420702552        0.0546857699        2.7318596454  CLST      81              1.0000000000
       406        82  DCM       C               2.8151533053        0.8635964698       -2.4515253505  CLST      82              1.0000000000
       407        82  DCM       H1              2.2638292672        0.2499615056       -3.1941894519  CLST      82              1.0000000000
       408        82  DCM       H2              2.8775983126        0.3421354018       -1.4705824681  CLST      82              1.0000000000
       409        82  DCM       CL1             4.4687006116        1.1624381370       -3.0546133805  CLST      82              1.0000000000
       410        82  DCM       CL2             1.9580531313        2.4140867571       -2.2324336063  CLST      82              1.0000000000
       411        83  DCM       C              -0.2753359277       -1.8805561293       -0.0781158660  CLST      83              1.0000000000
       412        83  DCM       H1              0.1855336455       -0.8816764172       -0.2062498790  CLST      83              1.0000000000
       413        83  DCM       H2              0.4758971856       -2.6891327944       -0.2112751861  CLST      83              1.0000000000
       414        83  DCM       CL1            -0.9678580126       -1.9934998627        1.5669545366  CLST      83              1.0000000000
       415        83  DCM       CL2            -1.5669051807       -2.0771613917       -1.2976752811  CLST      83              1.0000000000
       416        84  DCM       C              -0.8636711351       -2.2323405606        2.4878114683  CLST      84              1.0000000000
       417        84  DCM       H1             -0.4412681014       -2.4424480171        3.4930122870  CLST      84              1.0000000000
       418        84  DCM       H2             -1.9741710730       -2.2413293068        2.5097673915  CLST      84              1.0000000000
       419        84  DCM       CL1            -0.3062955372       -0.6204853000        1.9502478836  CLST      84              1.0000000000
       420        84  DCM       CL2            -0.2944844465       -3.4849632557        1.3455691774  CLST      84              1.0000000000
       421        85  DCM       C               0.4408064878        1.8795175510       -2.4362837663  CLST      85              1.0000000000
       422        85  DCM       H1              0.1107330070        2.1333545476       -1.4101732928  CLST      85              1.0000000000
       423        85  DCM       H2              1.5178820919        1.6127769549       -2.4562196448  CLST      85              1.0000000000
       424        85  DCM       CL1            -0.5103721344        0.4912916606       -3.0269409364  CLST      85              1.0000000000
       425        85  DCM       CL2             0.1628646762        3.2921523395       -3.4911016917  CLST      85              1.0000000000
       426        86  DCM       C              -0.1859815875       -3.4962032525        0.2110603617  CLST      86              1.0000000000
       427        86  DCM       H1             -0.8608293561       -2.8640913262        0.8250050455  CLST      86              1.0000000000
       428        86  DCM       H2             -0.3053193601       -3.2738330565       -0.8715400767  CLST      86              1.0000000000
       429        86  DCM       CL1             1.5069628843       -3.1744312037        0.6883468321  CLST      86              1.0000000000
       430        86  DCM       CL2            -0.5795887788       -5.2165012177        0.4974755763  CLST      86              1.0000000000
       431        87  DCM       C              -1.3431789169       -1.5353129810       -1.3936462526  CLST      87              1.0000000000
       432        87  DCM       H1             -2.3673919075       -1.6245259323       -0.9739996654  CLST      87              1.0000000000
       433        87  DCM       H2             -1.0454146350       -0.4705865004       -1.4983348850  CLST      87              1.0000000000
       434        87  DCM       CL1            -0.1935604484       -2.3536094609       -0.2986043750  CLST      87              1.0000000000
       435        87  DCM       CL2            -1.3023430023       -2.3150955315       -3.0012284197  CLST      87              1.0000000000
       436        88  DCM       C               1.0939615857        2.5480455964        3.3306412758  CLST      88              1.0000000000
       437        88  DCM       H1              1.1918934588        2.7711956668        4.4120227483  CLST      88              1.0000000000
       438        88  DCM       H2              0.4287676069        1.6756787520        3.1592675932  CLST      88              1.0000000000
       439        88  DCM       CL1             0.4027503941        3.9762390972        2.5050419727  CLST      88              1.0000000000
       440        88  DCM       CL2             2.7130723066        2.1838841382        2.6627646894  CLST      88              1.0000000000
       441        89  DCM       C              -2.3126544497        2.9419285690        1.6549414269  CLST      89              1.0000000000
       442        89  DCM       H1             -1.3168109422        3.3164729989        1.3337307353  CLST      89              1.0000000000
       443        89  DCM       H2             -2.2511162476        1.8871586500        1.9880515850  CLST      89              1.0000000000
       444        89  DCM       CL1            -2.9061106087        3.9448788429        3.0089892813  CLST      89              1.0000000000
       445        89  DCM       CL2            -3.4420711482        3.0541285735        0.2779058017  CLST      89              1.0000000000
       446        90  DCM       C               2.0326544930        2.6711707950       -2.7545841656  CLST      90              1.0000000000
       447        90  DCM       H1              1.7519923427        1.8948634120       -3.4971946031  CLST      90              1.0000000000
       448        90  DCM       H2              1.1425963035        3.0307327967       -2.1972697479  CLST      90              1.0000000000
       449        90  DCM       CL1             3.1998722203        1.9724582282       -1.5965642943  CLST      90              1.0000000000
       450        90  DCM       CL2             2.7835923565        4.0495391386       -3.6073495618  CLST      90              1.0000000000
       451        91  DCM       C               0.5139171362       -2.7874275591        0.2005876817  CLST      91              1.0000000000
       452        91  DCM       H1             -0.3979716529       -3.1702753922       -0.3038112446  CLST      91              1.0000000000
       453        91  DCM       H2              1.3492486263       -3.5148397107        0.1197941834  CLST      91              1.0000000000
       454        91  DCM       CL1             0.1466742624       -2.5076282826        1.9241450369  CLST      91              1.0000000000
       455        91  DCM       CL2             1.0003592625       -1.2456664054       -0.5580580004  CLST      91              1.0000000000
       456        92  DCM       C               3.1950672286       -2.1047613167       -0.2201654958  CLST      92              1.0000000000
       457        92  DCM       H1              3.9517601122       -1.7689720750       -0.9584115971  CLST      92              1.0000000000
       458        92  DCM       H2              2.4643583121       -1.2956696618       -0.0052971952  CLST      92              1.0000000000
       459        92  DCM       CL1             2.3226691215       -3.5187655668       -0.8783298656  CLST      92              1.0000000000
       460        92  DCM       CL2             4.0216870408       -2.5491163754        1.2981631288  CLST      92              1.0000000000
       461        93  DCM       C               0.6990784216       -1.9303428097        1.1725480466  CLST      93              1.0000000000
       462        93  DCM       H1             -0.2105508330       -2.0968137182        0.5569233961  CLST      93              1.0000000000
       463        93  DCM       H2              0.6588579306       -2.5214022240        2.1103408330  CLST      93              1.0000000000
       464        93  DCM       CL1             2.1329723800       -2.4320498108        0.2325032732  CLST      93              1.0000000000
       465        93  DCM       CL2             0.8146251524       -0.1938070209        1.5792874903  CLST      93              1.0000000000
       466        94  DCM       C              -0.9871719426       -1.4445741196       -0.5278369337  CLST      94              1.0000000000
       467        94  DCM       H1             -0.2087955034       -1.0920061729       -1.2360847474  CLST      94              1.0000000000
       468        94  DCM       H2             -1.2014055186       -2.5232725223       -0.6786417148  CLST      94              1.0000000000
       469        94  DCM       CL1            -0.4105035388       -1.1960010917        1.1445913702  CLST      94              1.0000000000
       470        94  DCM       CL2            -2.4859707855       -0.5104499000       -0.7987898442  CLST      94              1.0000000000
       471        95  DCM       C               2.7191557416       -1.0754672088       -0.3295482341  CLST      95              1.0000000000
       472        95  DCM       H1              3.7628973208       -0.9590758804       -0.6866805281  CLST      95              1.0000000000
       473        95  DCM       H2              2.0629716702       -0.2928943210       -0.7643260306  CLST      95              1.0000000000
       474        95  DCM       CL1             2.6928416058       -0.9422672487        1.4530584699  CLST      95              1.0000000000
       475        95  DCM       CL2             2.1130814080       -2.6804912820       -0.8226370331  CLST      95              1.0000000000
