* INITIAL
*  DATE:     6/28/26      2: 2:36      CREATED BY USER: boittier
*
       475  EXT
         1         1  DCM       C               3.3989221606      -13.2013057854        5.3516477406  CLST      1               1.0000000000
         2         1  DCM       H1              3.6048689239      -13.5894984351        4.3328576514  CLST      1               1.0000000000
         3         1  DCM       H2              4.3288219375      -13.1514441626        5.9582624928  CLST      1               1.0000000000
         4         1  DCM       CL1             2.7053229488      -11.5594160757        5.2161983538  CLST      1               1.0000000000
         5         1  DCM       CL2             2.2330944591      -14.2865208259        6.1654788962  CLST      1               1.0000000000
         6         2  DCM       C              -4.2118347841        3.6873418326       -5.8651805706  CLST      2               1.0000000000
         7         2  DCM       H1             -3.4349777164        2.9123815838       -6.0365896227  CLST      2               1.0000000000
         8         2  DCM       H2             -4.3754680684        3.8539049381       -4.7816147753  CLST      2               1.0000000000
         9         2  DCM       CL1            -3.6793901601        5.2218277113       -6.6095216165  CLST      2               1.0000000000
        10         2  DCM       CL2            -5.7449869632        3.1480890080       -6.6088048042  CLST      2               1.0000000000
        11         3  DCM       C              16.8157032485       -2.1237436644        3.6384232899  CLST      3               1.0000000000
        12         3  DCM       H1             15.8769562909       -2.6014335714        3.9917264639  CLST      3               1.0000000000
        13         3  DCM       H2             17.7015929598       -2.7354305733        3.9092834890  CLST      3               1.0000000000
        14         3  DCM       CL1            16.7507034572       -1.9543150866        1.8598573788  CLST      3               1.0000000000
        15         3  DCM       CL2            16.9694849113       -0.5104702886        4.3944840011  CLST      3               1.0000000000
        16         4  DCM       C              14.2209238722        3.5472388512       -1.8502999321  CLST      4               1.0000000000
        17         4  DCM       H1             14.1480679269        4.6110764333       -2.1573268365  CLST      4               1.0000000000
        18         4  DCM       H2             15.1498862536        3.3601453832       -1.2728612541  CLST      4               1.0000000000
        19         4  DCM       CL1            12.8103942446        3.1392500433       -0.8315169802  CLST      4               1.0000000000
        20         4  DCM       CL2            14.2225554949        2.5174602131       -3.3126070055  CLST      4               1.0000000000
        21         5  DCM       C               0.4169566873        9.5382919828        3.9756175853  CLST      5               1.0000000000
        22         5  DCM       H1              1.0946565533        9.2601526317        3.1415763189  CLST      5               1.0000000000
        23         5  DCM       H2              0.7929044737        9.1410352644        4.9419103765  CLST      5               1.0000000000
        24         5  DCM       CL1            -1.2062066436        8.8585201895        3.6590591391  CLST      5               1.0000000000
        25         5  DCM       CL2             0.3173567439       11.3206135336        4.0747697276  CLST      5               1.0000000000
        26         6  DCM       C               0.0942939899        4.6558720749       -5.7882370694  CLST      6               1.0000000000
        27         6  DCM       H1              0.2009231108        5.3839083197       -4.9568007628  CLST      6               1.0000000000
        28         6  DCM       H2             -0.5957717452        5.0372514698       -6.5699351959  CLST      6               1.0000000000
        29         6  DCM       CL1             1.6999847490        4.3751494065       -6.5178885071  CLST      6               1.0000000000
        30         6  DCM       CL2            -0.5541517897        3.1217835334       -5.1412519929  CLST      6               1.0000000000
        31         7  DCM       C              13.5117435077       -7.5748916415       14.3670921247  CLST      7               1.0000000000
        32         7  DCM       H1             13.7344272024       -8.1384905579       15.2978863394  CLST      7               1.0000000000
        33         7  DCM       H2             14.4439738680       -7.2009667558       13.8929956695  CLST      7               1.0000000000
        34         7  DCM       CL1            12.6697504928       -8.6572616221       13.2198186991  CLST      7               1.0000000000
        35         7  DCM       CL2            12.4637424269       -6.1825203296       14.7669818266  CLST      7               1.0000000000
        36         8  DCM       C              -4.6344310233        9.7755110287       -4.2011482541  CLST      8               1.0000000000
        37         8  DCM       H1             -5.6824365800        9.8715379637       -4.5543983088  CLST      8               1.0000000000
        38         8  DCM       H2             -3.9634464384       10.4671379497       -4.7507602650  CLST      8               1.0000000000
        39         8  DCM       CL1            -4.5786286652       10.1641270223       -2.4592307380  CLST      8               1.0000000000
        40         8  DCM       CL2            -4.0802090918        8.1006117474       -4.4710975900  CLST      8               1.0000000000
        41         9  DCM       C              -1.2106893725        1.9770718953       12.6555887524  CLST      9               1.0000000000
        42         9  DCM       H1             -1.7818920829        2.7077587049       13.2657469452  CLST      9               1.0000000000
        43         9  DCM       H2             -0.3128068322        1.6208022375       13.2019516041  CLST      9               1.0000000000
        44         9  DCM       CL1            -2.2601214925        0.5769668599       12.2861662001  CLST      9               1.0000000000
        45         9  DCM       CL2            -0.6971730673        2.7656234272       11.1355110924  CLST      9               1.0000000000
        46        10  DCM       C               7.1849692187       -2.8084746119       -1.8116939485  CLST      10              1.0000000000
        47        10  DCM       H1              8.0328741208       -2.1471059652       -1.5388547227  CLST      10              1.0000000000
        48        10  DCM       H2              7.0805501791       -3.6419838015       -1.0856842532  CLST      10              1.0000000000
        49        10  DCM       CL1             5.6814485302       -1.8442530277       -1.8125817160  CLST      10              1.0000000000
        50        10  DCM       CL2             7.4774479784       -3.4814333790       -3.4404556420  CLST      10              1.0000000000
        51        11  DCM       C               7.3170929155       -9.1931320154       -6.6379534371  CLST      11              1.0000000000
        52        11  DCM       H1              7.4229670402       -8.2097822238       -6.1319266312  CLST      11              1.0000000000
        53        11  DCM       H2              8.0834800319       -9.9115577884       -6.2774439983  CLST      11              1.0000000000
        54        11  DCM       CL1             5.6917015579       -9.8535161512       -6.2916227160  CLST      11              1.0000000000
        55        11  DCM       CL2             7.5170582722       -8.9664988547       -8.4006577117  CLST      11              1.0000000000
        56        12  DCM       C              10.8679142670        4.4265142619        1.9756674694  CLST      12              1.0000000000
        57        12  DCM       H1             11.9216236886        4.5127217215        2.3094939344  CLST      12              1.0000000000
        58        12  DCM       H2             10.7394481856        4.8282080631        0.9484708351  CLST      12              1.0000000000
        59        12  DCM       CL1             9.8278209582        5.3479489653        3.0987862049  CLST      12              1.0000000000
        60        12  DCM       CL2            10.3934872844        2.7044643427        1.9895361211  CLST      12              1.0000000000
        61        13  DCM       C               7.6710510871       -1.8759352249       -6.7010022793  CLST      13              1.0000000000
        62        13  DCM       H1              8.6550003824       -1.5892880735       -6.2723269011  CLST      13              1.0000000000
        63        13  DCM       H2              7.3216093352       -2.8448005891       -6.2882311628  CLST      13              1.0000000000
        64        13  DCM       CL1             6.4736566477       -0.6106787623       -6.3053294349  CLST      13              1.0000000000
        65        13  DCM       CL2             7.8253167552       -2.0291795758       -8.4743237525  CLST      13              1.0000000000
        66        14  DCM       C              -8.9215217859        1.8661980660        1.0117832450  CLST      14              1.0000000000
        67        14  DCM       H1             -8.8562497994        2.1852521297       -0.0496963142  CLST      14              1.0000000000
        68        14  DCM       H2             -8.1086406386        2.3195074191        1.6154839033  CLST      14              1.0000000000
        69        14  DCM       CL1            -8.7740690481        0.0906121433        1.1012899297  CLST      14              1.0000000000
        70        14  DCM       CL2           -10.4969861996        2.3774532956        1.6817252306  CLST      14              1.0000000000
        71        15  DCM       C               4.5389237097      -10.4702869186      -10.1328948572  CLST      15              1.0000000000
        72        15  DCM       H1              5.1334706949      -10.8456566120       -9.2720091976  CLST      15              1.0000000000
        73        15  DCM       H2              3.8127790514      -11.2330217142      -10.4820323500  CLST      15              1.0000000000
        74        15  DCM       CL1             3.6458847812       -9.0080999888       -9.6270924006  CLST      15              1.0000000000
        75        15  DCM       CL2             5.6497014322      -10.0668806242      -11.4734465235  CLST      15              1.0000000000
        76        16  DCM       C               3.4125049778       -2.1386936198       -4.6823007669  CLST      16              1.0000000000
        77        16  DCM       H1              2.7522803218       -1.6898996015       -5.4541416604  CLST      16              1.0000000000
        78        16  DCM       H2              4.1423611440       -1.3950225034       -4.2998147340  CLST      16              1.0000000000
        79        16  DCM       CL1             2.4145355559       -2.7325194123       -3.3237394431  CLST      16              1.0000000000
        80        16  DCM       CL2             4.3107309652       -3.4948670519       -5.4082032295  CLST      16              1.0000000000
        81        17  DCM       C              -0.8045094898       10.2443534461       -3.8226649656  CLST      17              1.0000000000
        82        17  DCM       H1              0.2963995404       10.3932581200       -3.8235221578  CLST      17              1.0000000000
        83        17  DCM       H2             -1.1582230098        9.8710284176       -4.8058424161  CLST      17              1.0000000000
        84        17  DCM       CL1            -1.2256065117        9.0474825713       -2.5631126837  CLST      17              1.0000000000
        85        17  DCM       CL2            -1.5980867028       11.8075520019       -3.4673595711  CLST      17              1.0000000000
        86        18  DCM       C              11.8710395749       -3.2976195958        2.1282787827  CLST      18              1.0000000000
        87        18  DCM       H1             11.2178021026       -4.1838357276        1.9881252124  CLST      18              1.0000000000
        88        18  DCM       H2             11.8101846121       -2.6167041957        1.2524859998  CLST      18              1.0000000000
        89        18  DCM       CL1            11.3485156807       -2.4149434129        3.5931220041  CLST      18              1.0000000000
        90        18  DCM       CL2            13.5620801499       -3.8425513644        2.3228118679  CLST      18              1.0000000000
        91        19  DCM       C               5.9933159562       -6.2125501945      -11.1207592096  CLST      19              1.0000000000
        92        19  DCM       H1              4.9479641684       -6.3282461531      -11.4767875401  CLST      19              1.0000000000
        93        19  DCM       H2              6.1568899087       -6.7775604294      -10.1792550561  CLST      19              1.0000000000
        94        19  DCM       CL1             7.1103022196       -6.8318760815      -12.3702509818  CLST      19              1.0000000000
        95        19  DCM       CL2             6.3190287848       -4.4797787577      -10.8260542582  CLST      19              1.0000000000
        96        20  DCM       C               4.4876359240       -5.5247800527       -2.3618560259  CLST      20              1.0000000000
        97        20  DCM       H1              3.3986512442       -5.7059699971       -2.4686861639  CLST      20              1.0000000000
        98        20  DCM       H2              4.7470159574       -4.4882619773       -2.6610196544  CLST      20              1.0000000000
        99        20  DCM       CL1             4.9562824295       -5.7651479834       -0.6534606424  CLST      20              1.0000000000
       100        20  DCM       CL2             5.3792666296       -6.6687763187       -3.4090389554  CLST      20              1.0000000000
       101        21  DCM       C               2.2722064958        1.1278457084       -3.9693794810  CLST      21              1.0000000000
       102        21  DCM       H1              1.6115737734        0.2563157148       -4.1538560756  CLST      21              1.0000000000
       103        21  DCM       H2              1.6760794772        2.0525333450       -3.8371002947  CLST      21              1.0000000000
       104        21  DCM       CL1             3.2183647781        0.8334269927       -2.4855363601  CLST      21              1.0000000000
       105        21  DCM       CL2             3.3751873967        1.3356329262       -5.3593931736  CLST      21              1.0000000000
       106        22  DCM       C               3.9678884815       -8.3019478867      -14.2387465937  CLST      22              1.0000000000
       107        22  DCM       H1              4.8722237517       -7.6706593928      -14.1130402669  CLST      22              1.0000000000
       108        22  DCM       H2              4.2195417421       -9.3804820723      -14.1579301375  CLST      22              1.0000000000
       109        22  DCM       CL1             2.7851655955       -7.8828182318      -12.9658438561  CLST      22              1.0000000000
       110        22  DCM       CL2             3.2615515162       -7.9867502401      -15.8500868904  CLST      22              1.0000000000
       111        23  DCM       C              -4.4072038117        7.5806205864        1.7627721565  CLST      23              1.0000000000
       112        23  DCM       H1             -4.6292961008        6.5611555677        1.3848035550  CLST      23              1.0000000000
       113        23  DCM       H2             -3.8620463298        7.5385389371        2.7292752393  CLST      23              1.0000000000
       114        23  DCM       CL1            -3.3956089723        8.4326081420        0.5628658474  CLST      23              1.0000000000
       115        23  DCM       CL2            -5.9416987535        8.4669594576        1.9963526909  CLST      23              1.0000000000
       116        24  DCM       C              -0.0791600752        0.0173335492      -11.9241646197  CLST      24              1.0000000000
       117        24  DCM       H1             -0.7369960396       -0.4432724771      -12.6911629801  CLST      24              1.0000000000
       118        24  DCM       H2             -0.1603060360        1.1241447372      -11.9403714603  CLST      24              1.0000000000
       119        24  DCM       CL1            -0.5633575967       -0.5778461374      -10.3101718217  CLST      24              1.0000000000
       120        24  DCM       CL2             1.6148170051       -0.4452966553      -12.2561524760  CLST      24              1.0000000000
       121        25  DCM       C              15.3907557469       -1.1208414449       -1.8355922070  CLST      25              1.0000000000
       122        25  DCM       H1             16.3790113200       -1.5884320123       -2.0294819884  CLST      25              1.0000000000
       123        25  DCM       H2             14.8968877787       -0.8184728087       -2.7825162227  CLST      25              1.0000000000
       124        25  DCM       CL1            14.3503108024       -2.2991246934       -0.9836272068  CLST      25              1.0000000000
       125        25  DCM       CL2            15.6264070146        0.3254785911       -0.8124928284  CLST      25              1.0000000000
       126        26  DCM       C             -14.5639270317       -5.5860451864        2.2460395479  CLST      26              1.0000000000
       127        26  DCM       H1            -14.5565384498       -6.3388000960        1.4303423849  CLST      26              1.0000000000
       128        26  DCM       H2            -15.0462977326       -4.6433017659        1.9124939051  CLST      26              1.0000000000
       129        26  DCM       CL1           -15.4705492691       -6.2419167820        3.6396351218  CLST      26              1.0000000000
       130        26  DCM       CL2           -12.8808012615       -5.2398369647        2.7343766681  CLST      26              1.0000000000
       131        27  DCM       C              10.0372785520        2.3810920170        5.5358934286  CLST      27              1.0000000000
       132        27  DCM       H1              9.3383278667        3.0269758560        4.9651685040  CLST      27              1.0000000000
       133        27  DCM       H2             11.0913038076        2.6468976599        5.3202215917  CLST      27              1.0000000000
       134        27  DCM       CL1             9.7290904030        2.5989970789        7.2832596006  CLST      27              1.0000000000
       135        27  DCM       CL2             9.7584424706        0.6744954426        5.0769398095  CLST      27              1.0000000000
       136        28  DCM       C               3.5753556345       -3.4534880277      -13.0951337924  CLST      28              1.0000000000
       137        28  DCM       H1              4.3554938592       -2.8047009286      -12.6446838100  CLST      28              1.0000000000
       138        28  DCM       H2              2.8606489707       -2.8572746555      -13.7001101542  CLST      28              1.0000000000
       139        28  DCM       CL1             4.3669063578       -4.6592046524      -14.1503031817  CLST      28              1.0000000000
       140        28  DCM       CL2             2.6801067431       -4.2808511074      -11.7872753930  CLST      28              1.0000000000
       141        29  DCM       C               4.4019060686       -0.5242313889        2.9796417403  CLST      29              1.0000000000
       142        29  DCM       H1              4.6969945015        0.5340096279        2.8303938479  CLST      29              1.0000000000
       143        29  DCM       H2              3.4664911428       -0.5979741563        3.5702292080  CLST      29              1.0000000000
       144        29  DCM       CL1             4.1415867087       -1.2912005175        1.3862053873  CLST      29              1.0000000000
       145        29  DCM       CL2             5.7161140012       -1.3685092740        3.8486327789  CLST      29              1.0000000000
       146        30  DCM       C              -3.7978098895       -7.7929574667        0.0735062509  CLST      30              1.0000000000
       147        30  DCM       H1             -3.1590532218       -8.6070426122        0.4699685603  CLST      30              1.0000000000
       148        30  DCM       H2             -3.3672067181       -6.7988901156        0.3099486169  CLST      30              1.0000000000
       149        30  DCM       CL1            -3.9173833871       -7.9718786875       -1.7008536666  CLST      30              1.0000000000
       150        30  DCM       CL2            -5.4201737355       -7.9195382222        0.8132934480  CLST      30              1.0000000000
       151        31  DCM       C              -8.5071781113        5.6589484353        0.8131033227  CLST      31              1.0000000000
       152        31  DCM       H1             -9.1116335120        5.3732405580        1.6990207062  CLST      31              1.0000000000
       153        31  DCM       H2             -8.3154824746        6.7527957366        0.7955017142  CLST      31              1.0000000000
       154        31  DCM       CL1            -6.9415209000        4.7975781575        0.8699972289  CLST      31              1.0000000000
       155        31  DCM       CL2            -9.3970825838        5.1983218415       -0.6670800550  CLST      31              1.0000000000
       156        32  DCM       C               0.7642017988       -1.5213189880       10.6985116983  CLST      32              1.0000000000
       157        32  DCM       H1              1.5797387275       -2.1521653799       10.2849052487  CLST      32              1.0000000000
       158        32  DCM       H2             -0.0170378818       -2.1422369983       11.1855414111  CLST      32              1.0000000000
       159        32  DCM       CL1             1.4554251090       -0.4042275086       11.9113311786  CLST      32              1.0000000000
       160        32  DCM       CL2             0.0181462834       -0.5903541746        9.3668657864  CLST      32              1.0000000000
       161        33  DCM       C               0.1031804946       -9.8123332815        3.4953680505  CLST      33              1.0000000000
       162        33  DCM       H1              0.4195692263      -10.8308634945        3.1861122106  CLST      33              1.0000000000
       163        33  DCM       H2              0.9713049292       -9.1226014580        3.5337517983  CLST      33              1.0000000000
       164        33  DCM       CL1            -1.0874296745       -9.1962565329        2.3162045905  CLST      33              1.0000000000
       165        33  DCM       CL2            -0.6446567144       -9.9013459011        5.1157688398  CLST      33              1.0000000000
       166        34  DCM       C               6.1764455413        1.6319247525        6.7724241818  CLST      34              1.0000000000
       167        34  DCM       H1              6.0281920059        2.1592860241        7.7378007522  CLST      34              1.0000000000
       168        34  DCM       H2              7.0070724348        2.0853389561        6.1945159974  CLST      34              1.0000000000
       169        34  DCM       CL1             4.6706267054        1.7341552012        5.8106375442  CLST      34              1.0000000000
       170        34  DCM       CL2             6.5753887874       -0.0798664486        7.0986940430  CLST      34              1.0000000000
       171        35  DCM       C               0.2655102024       11.8547478265       -0.1656879752  CLST      35              1.0000000000
       172        35  DCM       H1             -0.6821704452       12.2247022231       -0.6077723418  CLST      35              1.0000000000
       173        35  DCM       H2              0.5877013570       12.4964056242        0.6800564902  CLST      35              1.0000000000
       174        35  DCM       CL1             0.0216655953       10.1905991004        0.4355426710  CLST      35              1.0000000000
       175        35  DCM       CL2             1.5317994878       11.8627070798       -1.4257064846  CLST      35              1.0000000000
       176        36  DCM       C              -3.5964188950        1.4963250993       15.8319827831  CLST      36              1.0000000000
       177        36  DCM       H1             -4.0710216655        1.8423823294       16.7752590107  CLST      36              1.0000000000
       178        36  DCM       H2             -3.7307199226        2.2425522271       15.0217950877  CLST      36              1.0000000000
       179        36  DCM       CL1            -1.8483675825        1.2520700393       16.1138766457  CLST      36              1.0000000000
       180        36  DCM       CL2            -4.3534979085       -0.0433759861       15.3312342439  CLST      36              1.0000000000
       181        37  DCM       C             -10.4531660319        0.5794619924       -2.4568969428  CLST      37              1.0000000000
       182        37  DCM       H1             -9.5934573276        0.0792947264       -1.9641868554  CLST      37              1.0000000000
       183        37  DCM       H2            -10.7636879661        0.0296892242       -3.3701593846  CLST      37              1.0000000000
       184        37  DCM       CL1           -11.8267555919        0.6336452279       -1.3153000356  CLST      37              1.0000000000
       185        37  DCM       CL2            -9.9870325913        2.2451416104       -2.9110007698  CLST      37              1.0000000000
       186        38  DCM       C               6.7863897222        1.2594963421       -3.2710219099  CLST      38              1.0000000000
       187        38  DCM       H1              6.5779722410        1.5509963642       -2.2206093492  CLST      38              1.0000000000
       188        38  DCM       H2              5.9520889739        0.6570488403       -3.6881330938  CLST      38              1.0000000000
       189        38  DCM       CL1             6.9971587416        2.7274754438       -4.2659236839  CLST      38              1.0000000000
       190        38  DCM       CL2             8.2830963782        0.2880120027       -3.3239056226  CLST      38              1.0000000000
       191        39  DCM       C               4.0472106619       -1.6753968230       -8.6337637724  CLST      39              1.0000000000
       192        39  DCM       H1              4.1361302908       -0.8180687839       -7.9347030889  CLST      39              1.0000000000
       193        39  DCM       H2              4.6783332200       -2.5293669809       -8.3079661456  CLST      39              1.0000000000
       194        39  DCM       CL1             2.3389592033       -2.1936659690       -8.6901213454  CLST      39              1.0000000000
       195        39  DCM       CL2             4.5797558111       -1.1511438417      -10.2554676236  CLST      39              1.0000000000
       196        40  DCM       C              -7.0160585040       -9.7671571694       -3.4824881150  CLST      40              1.0000000000
       197        40  DCM       H1             -6.1631737884      -10.2101288775       -4.0266910054  CLST      40              1.0000000000
       198        40  DCM       H2             -7.9833335924      -10.1820114572       -3.8365595265  CLST      40              1.0000000000
       199        40  DCM       CL1            -7.0137492302       -7.9958631843       -3.7429677671  CLST      40              1.0000000000
       200        40  DCM       CL2            -6.8404239816      -10.1248825105       -1.7372017737  CLST      40              1.0000000000
       201        41  DCM       C              -5.1992510935       -0.1297327660        1.2849770774  CLST      41              1.0000000000
       202        41  DCM       H1             -5.7668172856       -0.3449733247        2.2139478935  CLST      41              1.0000000000
       203        41  DCM       H2             -5.7312061652       -0.5255212770        0.3938395658  CLST      41              1.0000000000
       204        41  DCM       CL1            -5.0118145718        1.6398628952        1.1169494009  CLST      41              1.0000000000
       205        41  DCM       CL2            -3.5931865728       -0.9041530154        1.3936874938  CLST      41              1.0000000000
       206        42  DCM       C              -3.1829470680      -11.5276774255       -0.4436427722  CLST      42              1.0000000000
       207        42  DCM       H1             -3.5914605741      -11.1660690558       -1.3998057171  CLST      42              1.0000000000
       208        42  DCM       H2             -2.3143087537      -10.9125313293       -0.1137594700  CLST      42              1.0000000000
       209        42  DCM       CL1            -4.4680231493      -11.4304050054        0.7983526843  CLST      42              1.0000000000
       210        42  DCM       CL2            -2.6568010283      -13.2281351879       -0.6356834919  CLST      42              1.0000000000
       211        43  DCM       C              14.8809920633        3.7051726345        2.1799105501  CLST      43              1.0000000000
       212        43  DCM       H1             14.0134415759        3.0711956124        1.8956799005  CLST      43              1.0000000000
       213        43  DCM       H2             14.9523890211        3.8129290876        3.2820835591  CLST      43              1.0000000000
       214        43  DCM       CL1            16.3774519048        2.9403409513        1.5732806129  CLST      43              1.0000000000
       215        43  DCM       CL2            14.6842099171        5.3225806845        1.4442736005  CLST      43              1.0000000000
       216        44  DCM       C               2.8281370791       -1.7847440558        6.3584974936  CLST      44              1.0000000000
       217        44  DCM       H1              3.8832275386       -1.4433746952        6.2714356692  CLST      44              1.0000000000
       218        44  DCM       H2              2.5969928613       -2.1116816413        7.3904292773  CLST      44              1.0000000000
       219        44  DCM       CL1             1.7388523351       -0.4331558091        5.9249850386  CLST      44              1.0000000000
       220        44  DCM       CL2             2.5597007424       -3.1517624069        5.2282975757  CLST      44              1.0000000000
       221        45  DCM       C               2.2348057232        1.7868195885       -9.1003727940  CLST      45              1.0000000000
       222        45  DCM       H1              1.6934743040        1.8304016157       -8.1330563151  CLST      45              1.0000000000
       223        45  DCM       H2              2.1712304156        0.7731400641       -9.5486678074  CLST      45              1.0000000000
       224        45  DCM       CL1             1.5050444911        2.9695964306      -10.2243748511  CLST      45              1.0000000000
       225        45  DCM       CL2             3.9528238816        2.1949759965       -8.8225108514  CLST      45              1.0000000000
       226        46  DCM       C             -13.8491638524       -1.7246411015        3.3073642468  CLST      46              1.0000000000
       227        46  DCM       H1            -13.7211557495       -0.6684928655        3.6254660161  CLST      46              1.0000000000
       228        46  DCM       H2            -12.8722994143       -2.2506344280        3.2659371718  CLST      46              1.0000000000
       229        46  DCM       CL1           -14.9049649273       -2.5623012851        4.4813285155  CLST      46              1.0000000000
       230        46  DCM       CL2           -14.5941317524       -1.7556739250        1.6832421366  CLST      46              1.0000000000
       231        47  DCM       C              -0.6529569561        1.9733488053        0.4474073280  CLST      47              1.0000000000
       232        47  DCM       H1             -1.7654189174        2.0294092451        0.4686133828  CLST      47              1.0000000000
       233        47  DCM       H2             -0.2156844162        2.6451333881        1.2118885888  CLST      47              1.0000000000
       234        47  DCM       CL1            -0.1389175382        0.2939705104        0.7886864895  CLST      47              1.0000000000
       235        47  DCM       CL2            -0.0761835522        2.4534181839       -1.1762138622  CLST      47              1.0000000000
       236        48  DCM       C               1.2904706308       -7.7742066699       -0.4271783293  CLST      48              1.0000000000
       237        48  DCM       H1              1.4648762318       -6.6835365160       -0.3124696163  CLST      48              1.0000000000
       238        48  DCM       H2              1.3674359537       -8.2944137782        0.5516043474  CLST      48              1.0000000000
       239        48  DCM       CL1            -0.3448828455       -8.0404811776       -1.0954457521  CLST      48              1.0000000000
       240        48  DCM       CL2             2.5118382039       -8.4506215200       -1.5422011142  CLST      48              1.0000000000
       241        49  DCM       C               4.5723851476        7.4673676948        0.8730107705  CLST      49              1.0000000000
       242        49  DCM       H1              5.2178054546        7.8133539750        1.7091213381  CLST      49              1.0000000000
       243        49  DCM       H2              5.0018425616        7.7540673518       -0.1091950846  CLST      49              1.0000000000
       244        49  DCM       CL1             4.4250574811        5.6912690549        0.9454445912  CLST      49              1.0000000000
       245        49  DCM       CL2             2.9570090177        8.2071096493        1.0463975722  CLST      49              1.0000000000
       246        50  DCM       C              -7.6746768526        8.3669628647       -2.0889765939  CLST      50              1.0000000000
       247        50  DCM       H1             -8.5801966029        7.7389895065       -2.2115970967  CLST      50              1.0000000000
       248        50  DCM       H2             -7.3677692330        8.8228488007       -3.0520696663  CLST      50              1.0000000000
       249        50  DCM       CL1            -8.0157494307        9.6700405829       -0.9135113612  CLST      50              1.0000000000
       250        50  DCM       CL2            -6.3347450235        7.3512266086       -1.4876219936  CLST      50              1.0000000000
       251        51  DCM       C             -12.6612442636       -5.2753867528        6.4703010038  CLST      51              1.0000000000
       252        51  DCM       H1            -13.2608904973       -5.7109190790        5.6425671663  CLST      51              1.0000000000
       253        51  DCM       H2            -13.3155050842       -4.9530508167        7.3081506442  CLST      51              1.0000000000
       254        51  DCM       CL1           -11.5160185919       -6.5110158789        7.0677674495  CLST      51              1.0000000000
       255        51  DCM       CL2           -11.7598594419       -3.8574473684        5.8597234704  CLST      51              1.0000000000
       256        52  DCM       C               6.3522752842        3.9691009848        3.2923815516  CLST      52              1.0000000000
       257        52  DCM       H1              6.7999196744        4.5887143025        2.4894795467  CLST      52              1.0000000000
       258        52  DCM       H2              5.2560871245        3.8766333684        3.1659705716  CLST      52              1.0000000000
       259        52  DCM       CL1             7.0711542103        2.3351485462        3.2329244922  CLST      52              1.0000000000
       260        52  DCM       CL2             6.6947702897        4.7315349459        4.8735363608  CLST      52              1.0000000000
       261        53  DCM       C               9.8907263664       -8.5573729476       15.8648300996  CLST      53              1.0000000000
       262        53  DCM       H1             10.0295472558       -8.7551905814       14.7809336791  CLST      53              1.0000000000
       263        53  DCM       H2              9.8889854123       -7.4667124569       16.0741886984  CLST      53              1.0000000000
       264        53  DCM       CL1             8.3290255755       -9.2529052826       16.3874779170  CLST      53              1.0000000000
       265        53  DCM       CL2            11.2293073652       -9.3210235997       16.7717615019  CLST      53              1.0000000000
       266        54  DCM       C              -5.5816820119        2.2070518505       12.1828506944  CLST      54              1.0000000000
       267        54  DCM       H1             -5.5258002705        1.5719313153       13.0921733378  CLST      54              1.0000000000
       268        54  DCM       H2             -5.2621231063        1.6421009966       11.2815411493  CLST      54              1.0000000000
       269        54  DCM       CL1            -7.2688234695        2.7543608023       11.9618037729  CLST      54              1.0000000000
       270        54  DCM       CL2            -4.5094883438        3.6218209275       12.3926574781  CLST      54              1.0000000000
       271        55  DCM       C              -3.6008204523       -0.5655707255       -7.8452214188  CLST      55              1.0000000000
       272        55  DCM       H1             -2.5888016138       -0.3295725001       -8.2310835824  CLST      55              1.0000000000
       273        55  DCM       H2             -3.8142631852       -1.6527986838       -7.9136294163  CLST      55              1.0000000000
       274        55  DCM       CL1            -3.6984305950       -0.0586816909       -6.1338905229  CLST      55              1.0000000000
       275        55  DCM       CL2            -4.8119548326        0.3272434841       -8.8106133170  CLST      55              1.0000000000
       276        56  DCM       C              -9.2890276097       -4.5928137111       -3.4119624635  CLST      56              1.0000000000
       277        56  DCM       H1             -9.9588062283       -5.4087563299       -3.7584482205  CLST      56              1.0000000000
       278        56  DCM       H2             -8.9318484963       -4.7877588936       -2.3783738341  CLST      56              1.0000000000
       279        56  DCM       CL1            -7.8782544424       -4.4907881831       -4.5040086687  CLST      56              1.0000000000
       280        56  DCM       CL2           -10.1858523241       -3.0473666188       -3.4365728851  CLST      56              1.0000000000
       281        57  DCM       C              -6.1814193760      -13.6889428474       -2.1372795193  CLST      57              1.0000000000
       282        57  DCM       H1             -6.0572976047      -13.1517813553       -1.1781428892  CLST      57              1.0000000000
       283        57  DCM       H2             -5.9156332640      -14.7694484472       -2.0246827769  CLST      57              1.0000000000
       284        57  DCM       CL1            -7.8831404959      -13.5672564315       -2.6684847791  CLST      57              1.0000000000
       285        57  DCM       CL2            -5.1101474003      -12.9616963832       -3.3688922317  CLST      57              1.0000000000
       286        58  DCM       C               4.0092707332        4.7832416611       -3.6700611491  CLST      58              1.0000000000
       287        58  DCM       H1              4.4149046567        3.7923197482       -3.9535012091  CLST      58              1.0000000000
       288        58  DCM       H2              3.7981526319        5.3998700208       -4.5675703370  CLST      58              1.0000000000
       289        58  DCM       CL1             2.4952791054        4.5357313376       -2.7554834535  CLST      58              1.0000000000
       290        58  DCM       CL2             5.1996767390        5.6354705940       -2.6438120580  CLST      58              1.0000000000
       291        59  DCM       C              -8.7864128089       -7.4585516761       -0.4709979095  CLST      59              1.0000000000
       292        59  DCM       H1             -7.8212274613       -7.3826128391       -1.0173093246  CLST      59              1.0000000000
       293        59  DCM       H2             -8.7479910505       -8.2728015717        0.2842695327  CLST      59              1.0000000000
       294        59  DCM       CL1           -10.0899739772       -7.8011377907       -1.6418707479  CLST      59              1.0000000000
       295        59  DCM       CL2            -9.1041695701       -5.9075592531        0.3497541449  CLST      59              1.0000000000
       296        60  DCM       C               2.4355085918        8.2256469315       -2.3931462813  CLST      60              1.0000000000
       297        60  DCM       H1              2.6834429001        7.2914970752       -1.8474003795  CLST      60              1.0000000000
       298        60  DCM       H2              1.6347197151        8.7872083065       -1.8697885067  CLST      60              1.0000000000
       299        60  DCM       CL1             3.8978280029        9.2500696145       -2.4807813145  CLST      60              1.0000000000
       300        60  DCM       CL2             1.8851281732        7.8126763559       -4.0443183205  CLST      60              1.0000000000
       301        61  DCM       C              -9.1674119092       -5.9024435945        4.0862157442  CLST      61              1.0000000000
       302        61  DCM       H1             -9.3326265994       -5.2017911656        3.2417560551  CLST      61              1.0000000000
       303        61  DCM       H2            -10.1331611092       -6.2736129964        4.4875018535  CLST      61              1.0000000000
       304        61  DCM       CL1            -8.2865713049       -5.0476716583        5.3855165357  CLST      61              1.0000000000
       305        61  DCM       CL2            -8.2006344176       -7.2940273244        3.5145351653  CLST      61              1.0000000000
       306        62  DCM       C               1.6843569289       14.8630714645        2.6708359553  CLST      62              1.0000000000
       307        62  DCM       H1              1.1331238265       15.7763052750        2.9788872070  CLST      62              1.0000000000
       308        62  DCM       H2              1.0595831232       13.9548358359        2.8040894768  CLST      62              1.0000000000
       309        62  DCM       CL1             2.1382388015       15.0104235108        0.9471138213  CLST      62              1.0000000000
       310        62  DCM       CL2             3.1560509194       14.7076638182        3.6748169503  CLST      62              1.0000000000
       311        63  DCM       C               3.1543055522        6.1768188166        4.6575013737  CLST      63              1.0000000000
       312        63  DCM       H1              3.0427984078        5.8893584503        5.7252686485  CLST      63              1.0000000000
       313        63  DCM       H2              3.8692186382        5.5085394951        4.1364331199  CLST      63              1.0000000000
       314        63  DCM       CL1             1.5660941347        6.0556480727        3.8509585884  CLST      63              1.0000000000
       315        63  DCM       CL2             3.7534405972        7.8577742236        4.5623392686  CLST      63              1.0000000000
       316        64  DCM       C              -0.4974777206      -13.6695963726        3.7620352130  CLST      64              1.0000000000
       317        64  DCM       H1             -0.2181736468      -13.0134104272        4.6133986717  CLST      64              1.0000000000
       318        64  DCM       H2             -0.8519599925      -14.6594717653        4.1188228529  CLST      64              1.0000000000
       319        64  DCM       CL1            -1.8042921018      -12.8845686141        2.8313216294  CLST      64              1.0000000000
       320        64  DCM       CL2             0.9312633126      -13.9067827744        2.7147759589  CLST      64              1.0000000000
       321        65  DCM       C              -8.3381618715        2.4663074114        4.8381642807  CLST      65              1.0000000000
       322        65  DCM       H1             -9.2587374753        2.0230416888        4.4059234893  CLST      65              1.0000000000
       323        65  DCM       H2             -8.3639389076        2.4342730683        5.9484753899  CLST      65              1.0000000000
       324        65  DCM       CL1            -8.2111809098        4.1664624141        4.3030745977  CLST      65              1.0000000000
       325        65  DCM       CL2            -6.9208004909        1.5429863086        4.2618555370  CLST      65              1.0000000000
       326        66  DCM       C              -0.4195268942        6.4673705399        0.8333348928  CLST      66              1.0000000000
       327        66  DCM       H1              0.0150059629        7.3038228294        1.4163823639  CLST      66              1.0000000000
       328        66  DCM       H2             -1.0239354958        6.8446672880       -0.0194268175  CLST      66              1.0000000000
       329        66  DCM       CL1             0.9091804160        5.4633925364        0.1991213567  CLST      66              1.0000000000
       330        66  DCM       CL2            -1.4572728155        5.4841164679        1.9064269227  CLST      66              1.0000000000
       331        67  DCM       C               8.7139408566       -0.6332724657        1.6440748429  CLST      67              1.0000000000
       332        67  DCM       H1              9.8076257641       -0.4612910151        1.5614906340  CLST      67              1.0000000000
       333        67  DCM       H2              8.3315952275       -0.2942236934        2.6292178327  CLST      67              1.0000000000
       334        67  DCM       CL1             7.8824637041        0.2765242660        0.3502692097  CLST      67              1.0000000000
       335        67  DCM       CL2             8.3803394127       -2.3799264119        1.4662597365  CLST      67              1.0000000000
       336        68  DCM       C               3.0488620673        2.2989842814        0.6710681117  CLST      68              1.0000000000
       337        68  DCM       H1              2.6107555612        1.3054376902        0.4374688995  CLST      68              1.0000000000
       338        68  DCM       H2              2.6233607595        3.0857664577        0.0163512204  CLST      68              1.0000000000
       339        68  DCM       CL1             2.6983156218        2.7024053347        2.3781311566  CLST      68              1.0000000000
       340        68  DCM       CL2             4.8145013522        2.2250023773        0.4053783391  CLST      68              1.0000000000
       341        69  DCM       C              11.6480331510       -0.0079762429       -2.1418807796  CLST      69              1.0000000000
       342        69  DCM       H1             12.6098297375        0.2109913964       -1.6333381634  CLST      69              1.0000000000
       343        69  DCM       H2             10.9833788991        0.8815604038       -2.1326190003  CLST      69              1.0000000000
       344        69  DCM       CL1            11.9818607557       -0.4713101492       -3.8352018380  CLST      69              1.0000000000
       345        69  DCM       CL2            10.8356278329       -1.3571143403       -1.2963219747  CLST      69              1.0000000000
       346        70  DCM       C              -3.2808208188        5.6385828895       -2.0847360334  CLST      70              1.0000000000
       347        70  DCM       H1             -3.4424821277        6.6834706452       -1.7401055545  CLST      70              1.0000000000
       348        70  DCM       H2             -3.9593386990        5.3925503789       -2.9254781129  CLST      70              1.0000000000
       349        70  DCM       CL1            -1.5894040429        5.4679752348       -2.6291703296  CLST      70              1.0000000000
       350        70  DCM       CL2            -3.5989407861        4.5211459678       -0.7281090732  CLST      70              1.0000000000
       351        71  DCM       C              -3.4806069869       11.9185978068        0.3648172550  CLST      71              1.0000000000
       352        71  DCM       H1             -2.8909681640       11.1697539415       -0.2115005508  CLST      71              1.0000000000
       353        71  DCM       H2             -4.5325117789       11.5927886663        0.4772831922  CLST      71              1.0000000000
       354        71  DCM       CL1            -2.7453674139       12.1050982461        1.9837975764  CLST      71              1.0000000000
       355        71  DCM       CL2            -3.4316332457       13.4764482564       -0.5103301065  CLST      71              1.0000000000
       356        72  DCM       C              -2.1654587068       -4.5033114834       -1.5262796647  CLST      72              1.0000000000
       357        72  DCM       H1             -1.4289769457       -5.3315982528       -1.4696216264  CLST      72              1.0000000000
       358        72  DCM       H2             -3.0459981907       -4.7055858244       -0.8858550534  CLST      72              1.0000000000
       359        72  DCM       CL1            -1.3797626373       -2.9942411215       -0.9734602413  CLST      72              1.0000000000
       360        72  DCM       CL2            -2.7105619321       -4.3307004240       -3.2204225071  CLST      72              1.0000000000
       361        73  DCM       C              -7.6757246020       10.6670799248       -6.9199049429  CLST      73              1.0000000000
       362        73  DCM       H1             -7.3862255546       11.6796992662       -6.5724259343  CLST      73              1.0000000000
       363        73  DCM       H2             -8.3751878062       10.7253116035       -7.7819383853  CLST      73              1.0000000000
       364        73  DCM       CL1            -6.2082039901        9.7800206966       -7.4261048342  CLST      73              1.0000000000
       365        73  DCM       CL2            -8.4768535735        9.7984852444       -5.5780471858  CLST      73              1.0000000000
       366        74  DCM       C               2.4208763608      -11.6699130666        0.2117754693  CLST      74              1.0000000000
       367        74  DCM       H1              2.9332102911      -11.3521026240       -0.7212577614  CLST      74              1.0000000000
       368        74  DCM       H2              2.6278156063      -12.7370688673        0.4370010837  CLST      74              1.0000000000
       369        74  DCM       CL1             3.0061008717      -10.6634589898        1.5687860771  CLST      74              1.0000000000
       370        74  DCM       CL2             0.6582953491      -11.4501798251        0.0111629463  CLST      74              1.0000000000
       371        75  DCM       C               0.0731658816       -5.7255095721        3.2200806165  CLST      75              1.0000000000
       372        75  DCM       H1             -0.4265253750       -6.4447007949        3.9032821528  CLST      75              1.0000000000
       373        75  DCM       H2              0.1291083821       -4.7130347758        3.6759280668  CLST      75              1.0000000000
       374        75  DCM       CL1             1.7308823557       -6.3008516095        2.8788839499  CLST      75              1.0000000000
       375        75  DCM       CL2            -0.8567286668       -5.6263131780        1.6968296350  CLST      75              1.0000000000
       376        76  DCM       C              -6.0121193279       -3.2935646917       -1.4623403767  CLST      76              1.0000000000
       377        76  DCM       H1             -5.8933149047       -2.9881935771       -2.5235985283  CLST      76              1.0000000000
       378        76  DCM       H2             -5.1802451325       -2.9090185810       -0.8357446986  CLST      76              1.0000000000
       379        76  DCM       CL1            -7.5552913942       -2.6429908987       -0.8444228302  CLST      76              1.0000000000
       380        76  DCM       CL2            -6.0251591443       -5.0758166195       -1.3779997705  CLST      76              1.0000000000
       381        77  DCM       C               4.5160444457       12.1676544666        0.9037243672  CLST      77              1.0000000000
       382        77  DCM       H1              4.0834591930       12.4702978109       -0.0737245194  CLST      77              1.0000000000
       383        77  DCM       H2              5.0156938282       13.0263057261        1.3997227500  CLST      77              1.0000000000
       384        77  DCM       CL1             3.2050983164       11.5677154471        1.9586385378  CLST      77              1.0000000000
       385        77  DCM       CL2             5.7123213587       10.8678436213        0.6328620908  CLST      77              1.0000000000
       386        78  DCM       C              -5.3626545510       13.4615507665       -3.9371090077  CLST      78              1.0000000000
       387        78  DCM       H1             -4.5873083164       13.0582411455       -3.2529939631  CLST      78              1.0000000000
       388        78  DCM       H2             -5.4858298222       14.5567858482       -3.7973109142  CLST      78              1.0000000000
       389        78  DCM       CL1            -4.8694130831       13.1405221231       -5.6252560615  CLST      78              1.0000000000
       390        78  DCM       CL2            -6.9208427598       12.6517875599       -3.5974177817  CLST      78              1.0000000000
       391        79  DCM       C               5.4778630435       11.0496465668        4.5730720077  CLST      79              1.0000000000
       392        79  DCM       H1              5.4652018314       10.3894868555        3.6784095026  CLST      79              1.0000000000
       393        79  DCM       H2              4.4461014575       11.2799824816        4.9115246559  CLST      79              1.0000000000
       394        79  DCM       CL1             6.3081978831       12.5764887795        4.1562390192  CLST      79              1.0000000000
       395        79  DCM       CL2             6.3548736348       10.2194829821        5.8904676948  CLST      79              1.0000000000
       396        80  DCM       C               4.9189562071       -6.3705656065       -7.3381963889  CLST      80              1.0000000000
       397        80  DCM       H1              5.0649087118       -7.3888599396       -7.7504929822  CLST      80              1.0000000000
       398        80  DCM       H2              4.5166958152       -6.4132720287       -6.3041270384  CLST      80              1.0000000000
       399        80  DCM       CL1             6.4936996970       -5.5245070509       -7.3213387933  CLST      80              1.0000000000
       400        80  DCM       CL2             3.7615798076       -5.4925488787       -8.3779017130  CLST      80              1.0000000000
       401        81  DCM       C               2.5501377072        1.9124285061        8.9835142746  CLST      81              1.0000000000
       402        81  DCM       H1              1.9695481060        1.7948408678        8.0449388341  CLST      81              1.0000000000
       403        81  DCM       H2              1.8777127128        1.9557306174        9.8664310294  CLST      81              1.0000000000
       404        81  DCM       CL1             3.6501412358        0.5147835772        9.1659767115  CLST      81              1.0000000000
       405        81  DCM       CL2             3.4957394668        3.4274889729        8.8980766739  CLST      81              1.0000000000
       406        82  DCM       C              -5.9310658387       -4.6866808912        2.3964364341  CLST      82              1.0000000000
       407        82  DCM       H1             -6.4823898768       -5.3003158554        1.6537723327  CLST      82              1.0000000000
       408        82  DCM       H2             -5.8686208314       -5.2081419592        3.3773793166  CLST      82              1.0000000000
       409        82  DCM       CL1            -4.2775185324       -4.3878392241        1.7933484041  CLST      82              1.0000000000
       410        82  DCM       CL2            -6.7881660127       -3.1361906039        2.6155281783  CLST      82              1.0000000000
       411        83  DCM       C             -11.3799061275       -8.4625185467        2.2093781526  CLST      83              1.0000000000
       412        83  DCM       H1            -10.9190365544       -7.4636388346        2.0812441396  CLST      83              1.0000000000
       413        83  DCM       H2            -10.6286730142       -9.2710952118        2.0762188325  CLST      83              1.0000000000
       414        83  DCM       CL1           -12.0724282124       -8.5754622802        3.8544485552  CLST      83              1.0000000000
       415        83  DCM       CL2           -12.6714753806       -8.6591238091        0.9898187375  CLST      83              1.0000000000
       416        84  DCM       C             -18.4485452518       -2.2563296238        3.5439673222  CLST      84              1.0000000000
       417        84  DCM       H1            -18.0261422181       -2.4664370804        4.5491681410  CLST      84              1.0000000000
       418        84  DCM       H2            -19.5590451897       -2.2653183701        3.5659232455  CLST      84              1.0000000000
       419        84  DCM       CL1           -17.8911696539       -0.6444743633        3.0064037376  CLST      84              1.0000000000
       420        84  DCM       CL2           -17.8793585632       -3.5089523190        2.4017250313  CLST      84              1.0000000000
       421        85  DCM       C              -2.8620445498        0.4478788338       -1.9879995307  CLST      85              1.0000000000
       422        85  DCM       H1             -3.1921180306        0.7017158303       -0.9618890572  CLST      85              1.0000000000
       423        85  DCM       H2             -1.7849689457        0.1811382376       -2.0079354092  CLST      85              1.0000000000
       424        85  DCM       CL1            -3.8132231719       -0.9403470567       -2.5786567007  CLST      85              1.0000000000
       425        85  DCM       CL2            -3.1399863614        1.8605136222       -3.0428174561  CLST      85              1.0000000000
       426        86  DCM       C              -6.4973033518        4.6253463529       15.4035839145  CLST      86              1.0000000000
       427        86  DCM       H1             -7.1721511204        5.2574582792       16.0175285983  CLST      86              1.0000000000
       428        86  DCM       H2             -6.6166411243        4.8477165489       14.3209834761  CLST      86              1.0000000000
       429        86  DCM       CL1            -4.8043588799        4.9471184017       15.8808703849  CLST      86              1.0000000000
       430        86  DCM       CL2            -6.8909105431        2.9050483876       15.6899991291  CLST      86              1.0000000000
       431        87  DCM       C              -2.7754766525        3.3356063015       -9.5472552779  CLST      87              1.0000000000
       432        87  DCM       H1             -3.7996896430        3.2463933502       -9.1276086906  CLST      87              1.0000000000
       433        87  DCM       H2             -2.4777123706        4.4003327820       -9.6519439102  CLST      87              1.0000000000
       434        87  DCM       CL1            -1.6258581840        2.5173098215       -8.4522134002  CLST      87              1.0000000000
       435        87  DCM       CL2            -2.7346407379        2.5558237509      -11.1548374449  CLST      87              1.0000000000
       436        88  DCM       C              -9.3954480914        6.9676722277       -7.9406489920  CLST      88              1.0000000000
       437        88  DCM       H1             -9.2975162184        7.1908222981       -6.8592675196  CLST      88              1.0000000000
       438        88  DCM       H2            -10.0606420703        6.0953053833       -8.1120226747  CLST      88              1.0000000000
       439        88  DCM       CL1           -10.0866592831        8.3958657285       -8.7662482952  CLST      88              1.0000000000
       440        88  DCM       CL2            -7.7763373705        6.6035107695       -8.6085255785  CLST      88              1.0000000000
       441        89  DCM       C              13.8843034292        0.1016785412        2.7356261523  CLST      89              1.0000000000
       442        89  DCM       H1             14.8801469368        0.4762229711        2.4144154607  CLST      89              1.0000000000
       443        89  DCM       H2             13.9458416314       -0.9530913778        3.0687363104  CLST      89              1.0000000000
       444        89  DCM       CL1            13.2908472702        1.1046288151        4.0896740067  CLST      89              1.0000000000
       445        89  DCM       CL2            12.7548867308        0.2138785457        1.3585905271  CLST      89              1.0000000000
       446        90  DCM       C              -7.8518568918        4.9328443876       -4.1590816314  CLST      90              1.0000000000
       447        90  DCM       H1             -8.1325190422        4.1565370046       -4.9016920689  CLST      90              1.0000000000
       448        90  DCM       H2             -8.7419150814        5.2924063893       -3.6017672137  CLST      90              1.0000000000
       449        90  DCM       CL1            -6.6846391646        4.2341318208       -3.0010617601  CLST      90              1.0000000000
       450        90  DCM       CL2            -7.1009190284        6.3112127312       -5.0118470276  CLST      90              1.0000000000
       451        91  DCM       C              -0.3513764692       -1.7282075117       -5.9705445378  CLST      91              1.0000000000
       452        91  DCM       H1             -1.2632652582       -2.1110553448       -6.4749434640  CLST      91              1.0000000000
       453        91  DCM       H2              0.4839550210       -2.4556196633       -6.0513380361  CLST      91              1.0000000000
       454        91  DCM       CL1            -0.7186193429       -1.4484082353       -4.2469871826  CLST      91              1.0000000000
       455        91  DCM       CL2             0.1350656571       -0.1864463580       -6.7291902198  CLST      91              1.0000000000
       456        92  DCM       C             -11.2284696732       -2.5212840093        0.1931936502  CLST      92              1.0000000000
       457        92  DCM       H1            -10.4717767897       -2.1854947675       -0.5450524511  CLST      92              1.0000000000
       458        92  DCM       H2            -11.9591785897       -1.7121923544        0.4080619508  CLST      92              1.0000000000
       459        92  DCM       CL1           -12.1008677803       -3.9352882593       -0.4649707197  CLST      92              1.0000000000
       460        92  DCM       CL2           -10.4018498610       -2.9656390679        1.7115222748  CLST      92              1.0000000000
       461        93  DCM       C               7.8270867496        3.9292370103       -0.4876538094  CLST      93              1.0000000000
       462        93  DCM       H1              6.9174574950        3.7627661018       -1.1032784600  CLST      93              1.0000000000
       463        93  DCM       H2              7.7868662586        3.3381775960        0.4501389770  CLST      93              1.0000000000
       464        93  DCM       CL1             9.2609807080        3.4275300093       -1.4276985828  CLST      93              1.0000000000
       465        93  DCM       CL2             7.9426334804        5.6657727991       -0.0809143657  CLST      93              1.0000000000
       466        94  DCM       C              -9.2262370133       -1.3861462914        4.6567196402  CLST      94              1.0000000000
       467        94  DCM       H1             -8.4478605741       -1.0335783447        3.9484718264  CLST      94              1.0000000000
       468        94  DCM       H2             -9.4404705893       -2.4648446941        4.5059148590  CLST      94              1.0000000000
       469        94  DCM       CL1            -8.6495686094       -1.1375732635        6.3291479440  CLST      94              1.0000000000
       470        94  DCM       CL2           -10.7250358562       -0.4520220718        4.3857667297  CLST      94              1.0000000000
       471        95  DCM       C              -6.7351204543        0.7454841968       -3.7629448635  CLST      95              1.0000000000
       472        95  DCM       H1             -5.6913788750        0.8618755252       -4.1200771576  CLST      95              1.0000000000
       473        95  DCM       H2             -7.3913045256        1.5280570846       -4.1977226601  CLST      95              1.0000000000
       474        95  DCM       CL1            -6.7614345901        0.8786841568       -1.9803381595  CLST      95              1.0000000000
       475        95  DCM       CL2            -7.3411947878       -0.8595398764       -4.2560336626  CLST      95              1.0000000000
