* CHARMM CGENFF SD/ABNR BEFORE MLPOT (MM ONLY)
*  DATE:     6/28/26      1:56:49      CREATED BY USER: boittier
*
       460  EXT
         1         1  DCM       C               5.8510238622        5.2823518003        1.5965527664  CLST      1               1.0000000000
         2         1  DCM       H1              6.2000585291        4.6004070992        0.7920291950  CLST      1               1.0000000000
         3         1  DCM       H2              6.5392604614        6.1458678185        1.7153153368  CLST      1               1.0000000000
         4         1  DCM       CL1             4.2227647094        5.8910771805        1.1794539487  CLST      1               1.0000000000
         5         1  DCM       CL2             5.7834981545        4.3779575536        3.1370698192  CLST      1               1.0000000000
         6         2  DCM       C              -8.5601275284        9.8465103247        9.5866032618  CLST      2               1.0000000000
         7         2  DCM       H1             -8.5238226563       10.0419796493       10.6793964310  CLST      2               1.0000000000
         8         2  DCM       H2             -7.8485277344        9.0453979119        9.3008454193  CLST      2               1.0000000000
         9         2  DCM       CL1           -10.2118608241        9.3323587453        9.1379008966  CLST      2               1.0000000000
        10         2  DCM       CL2            -8.1277058938       11.3435999816        8.7107756004  CLST      2               1.0000000000
        11         3  DCM       C              -4.8255303488       12.0621433571        5.7254876005  CLST      3               1.0000000000
        12         3  DCM       H1             -4.5605588439       11.0276081186        5.4195120919  CLST      3               1.0000000000
        13         3  DCM       H2             -4.1474158169       12.8028785823        5.2515688787  CLST      3               1.0000000000
        14         3  DCM       CL1            -6.5052084684       12.4070378754        5.2223006256  CLST      3               1.0000000000
        15         3  DCM       CL2            -4.6831337057       12.2040280181        7.5013267855  CLST      3               1.0000000000
        16         4  DCM       C               0.4598494750        2.9868669132       -3.3792864014  CLST      4               1.0000000000
        17         4  DCM       H1              0.2649201672        2.6983662114       -4.4333605092  CLST      4               1.0000000000
        18         4  DCM       H2             -0.1177864381        3.8924990453       -3.1017913547  CLST      4               1.0000000000
        19         4  DCM       CL1            -0.0286272008        1.6457212351       -2.3050351344  CLST      4               1.0000000000
        20         4  DCM       CL2             2.2040898674        3.3229628513       -3.1814465847  CLST      4               1.0000000000
        21         5  DCM       C               3.6613286425        9.3717510928       10.6873569763  CLST      5               1.0000000000
        22         5  DCM       H1              3.7494364089        8.5052975493        9.9977356788  CLST      5               1.0000000000
        23         5  DCM       H2              3.1263593879       10.2137198912       10.1995682972  CLST      5               1.0000000000
        24         5  DCM       CL1             2.7495369158        8.8653367755       12.1392932275  CLST      5               1.0000000000
        25         5  DCM       CL2             5.2980263596        9.9145402345       11.1592415062  CLST      5               1.0000000000
        26         6  DCM       C              -8.8772276870       -6.5055272381       10.0197797370  CLST      6               1.0000000000
        27         6  DCM       H1             -8.9473054411       -7.5019286244        9.5378926386  CLST      6               1.0000000000
        28         6  DCM       H2             -8.3246071065       -5.7883625764        9.3768553049  CLST      6               1.0000000000
        29         6  DCM       CL1           -10.5290586333       -5.8844907863       10.3010375625  CLST      6               1.0000000000
        30         6  DCM       CL2            -8.0183307155       -6.6813961262       11.5772759730  CLST      6               1.0000000000
        31         7  DCM       C               5.2307041642       -8.4481594155       -3.7993029462  CLST      7               1.0000000000
        32         7  DCM       H1              4.8402707045       -9.0064986012       -4.6757827207  CLST      7               1.0000000000
        33         7  DCM       H2              6.1041773924       -8.9677452562       -3.3506010589  CLST      7               1.0000000000
        34         7  DCM       CL1             5.7291661950       -6.8173482755       -4.3329173783  CLST      7               1.0000000000
        35         7  DCM       CL2             3.9412419932       -8.3157317225       -2.5685568662  CLST      7               1.0000000000
        36         8  DCM       C               0.9528925024        3.5915954774        5.2422034137  CLST      8               1.0000000000
        37         8  DCM       H1              0.9857642543        4.2806254150        6.1125644541  CLST      8               1.0000000000
        38         8  DCM       H2              1.2219005908        2.5575072273        5.5444064379  CLST      8               1.0000000000
        39         8  DCM       CL1            -0.7000880188        3.5901406343        4.5580808891  CLST      8               1.0000000000
        40         8  DCM       CL2             2.1175620217        4.1586635787        4.0110643647  CLST      8               1.0000000000
        41         9  DCM       C               0.5855101399       -2.4391964303       -9.1236449142  CLST      9               1.0000000000
        42         9  DCM       H1             -0.0746702307       -2.0862499543       -9.9431974897  CLST      9               1.0000000000
        43         9  DCM       H2              1.6536299340       -2.3003479560       -9.3908783081  CLST      9               1.0000000000
        44         9  DCM       CL1             0.2231533274       -1.5027512098       -7.6440411965  CLST      9               1.0000000000
        45         9  DCM       CL2             0.2769462163       -4.1748362690       -8.8292755677  CLST      9               1.0000000000
        46        10  DCM       C              -6.9826521118        8.7284532831        5.4357447519  CLST      10              1.0000000000
        47        10  DCM       H1             -6.9592153131        7.7265185315        4.9594691597  CLST      10              1.0000000000
        48        10  DCM       H2             -6.4748857300        9.4822732011        4.8025716674  CLST      10              1.0000000000
        49        10  DCM       CL1            -6.1372763925        8.6519039600        7.0056435337  CLST      10              1.0000000000
        50        10  DCM       CL2            -8.6813653389        9.2272677977        5.6725846732  CLST      10              1.0000000000
        51        11  DCM       C              -0.8370792981       10.9148250476        6.4681907220  CLST      11              1.0000000000
        52        11  DCM       H1              0.1151397414       10.3448188078        6.4130108732  CLST      11              1.0000000000
        53        11  DCM       H2             -0.7914595516       11.6946052180        7.2574238026  CLST      11              1.0000000000
        54        11  DCM       CL1            -1.1473975127       11.6999493377        4.8943969684  CLST      11              1.0000000000
        55        11  DCM       CL2            -2.1688469625        9.7877392371        6.8452885179  CLST      11              1.0000000000
        56        12  DCM       C              -4.9498731553        6.4759650239       -3.3724942972  CLST      12              1.0000000000
        57        12  DCM       H1             -4.3540331602        7.0376052389       -2.6240515812  CLST      12              1.0000000000
        58        12  DCM       H2             -4.3803831047        5.6053302694       -3.7563390711  CLST      12              1.0000000000
        59        12  DCM       CL1            -6.4451377406        5.8924887971       -2.5964911452  CLST      12              1.0000000000
        60        12  DCM       CL2            -5.3647484054        7.5499532758       -4.7375634223  CLST      12              1.0000000000
        61        13  DCM       C               4.0199682954       -5.9987398124        2.0525455662  CLST      13              1.0000000000
        62        13  DCM       H1              5.1241061013       -6.1195341163        2.0405829432  CLST      13              1.0000000000
        63        13  DCM       H2              3.6006261675       -6.2527994188        3.0487786159  CLST      13              1.0000000000
        64        13  DCM       CL1             3.6132120013       -4.3011962457        1.6672683779  CLST      13              1.0000000000
        65        13  DCM       CL2             3.3044202195       -7.0856818795        0.8288396322  CLST      13              1.0000000000
        66        14  DCM       C              -6.8019209552        6.5937077891        1.1813914165  CLST      14              1.0000000000
        67        14  DCM       H1             -5.8712896309        7.0258308049        1.6042368888  CLST      14              1.0000000000
        68        14  DCM       H2             -7.0925171792        7.1138340750        0.2451657799  CLST      14              1.0000000000
        69        14  DCM       CL1            -6.5312657966        4.8636658438        0.8228744119  CLST      14              1.0000000000
        70        14  DCM       CL2            -8.1152422898        6.7665570932        2.3813728765  CLST      14              1.0000000000
        71        15  DCM       C              11.1127351031        2.2572977570       -5.4908437367  CLST      15              1.0000000000
        72        15  DCM       H1             11.6011299077        1.6995244091       -4.6640639577  CLST      15              1.0000000000
        73        15  DCM       H2             11.7807006887        3.0512059760       -5.8865208705  CLST      15              1.0000000000
        74        15  DCM       CL1            10.7165956865        1.1186261325       -6.8104990809  CLST      15              1.0000000000
        75        15  DCM       CL2             9.6152854968        3.0121885974       -4.8758366851  CLST      15              1.0000000000
        76        16  DCM       C               1.4685618373        6.7808547194       -3.9751726685  CLST      16              1.0000000000
        77        16  DCM       H1              0.5724913861        6.4399018278       -3.4177889735  CLST      16              1.0000000000
        78        16  DCM       H2              1.8003546509        6.0117767288       -4.7045738608  CLST      16              1.0000000000
        79        16  DCM       CL1             1.0697389670        8.2859083506       -4.8552834874  CLST      16              1.0000000000
        80        16  DCM       CL2             2.7876378479        7.0864333501       -2.8078909772  CLST      16              1.0000000000
        81        17  DCM       C              -6.5557785043       -0.2596317078       -4.7889989198  CLST      17              1.0000000000
        82        17  DCM       H1             -6.0008431712        0.6435055960       -4.4622859715  CLST      17              1.0000000000
        83        17  DCM       H2             -5.9260094315       -0.8950092968       -5.4460710822  CLST      17              1.0000000000
        84        17  DCM       CL1            -8.0128435832        0.2487398681       -5.6906924348  CLST      17              1.0000000000
        85        17  DCM       CL2            -7.0309198147       -1.2033869757       -3.3477459299  CLST      17              1.0000000000
        86        18  DCM       C              -6.7276776540       -9.0371274182       -9.6787140213  CLST      18              1.0000000000
        87        18  DCM       H1             -5.9720514489       -8.3503067697       -9.2422065129  CLST      18              1.0000000000
        88        18  DCM       H2             -7.4817710452       -9.3337866986       -8.9192676226  CLST      18              1.0000000000
        89        18  DCM       CL1            -7.5571546020       -8.2054979723      -11.0277511399  CLST      18              1.0000000000
        90        18  DCM       CL2            -5.9011380927      -10.5019088122      -10.2838243064  CLST      18              1.0000000000
        91        19  DCM       C               4.9024985322       -1.5316866666       -0.6289173887  CLST      19              1.0000000000
        92        19  DCM       H1              5.3902658153       -0.5670857759       -0.3425531207  CLST      19              1.0000000000
        93        19  DCM       H2              5.1569321216       -2.3360133778        0.0906420755  CLST      19              1.0000000000
        94        19  DCM       CL1             3.1332104032       -1.3138682930       -0.6449020738  CLST      19              1.0000000000
        95        19  DCM       CL2             5.4787595182       -2.0003618641       -2.2527059510  CLST      19              1.0000000000
        96        20  DCM       C               1.0718916265        4.5703452238        0.2713453629  CLST      20              1.0000000000
        97        20  DCM       H1              1.3912760017        5.2161724000        1.1143535024  CLST      20              1.0000000000
        98        20  DCM       H2              1.9281388916        4.3298483229       -0.3927618308  CLST      20              1.0000000000
        99        20  DCM       CL1             0.3964569708        3.0552661036        0.9336394760  CLST      20              1.0000000000
       100        20  DCM       CL2            -0.1745341744        5.4323235855       -0.6720096145  CLST      20              1.0000000000
       101        21  DCM       C               0.4563225198       11.9492933917       -6.6139603191  CLST      21              1.0000000000
       102        21  DCM       H1              1.2877957786       11.3563596827       -6.1787029988  CLST      21              1.0000000000
       103        21  DCM       H2              0.6929571889       12.2610107632       -7.6531413513  CLST      21              1.0000000000
       104        21  DCM       CL1            -1.0185707241       10.9450305347       -6.6260669427  CLST      21              1.0000000000
       105        21  DCM       CL2             0.1850495074       13.4050368741       -5.6144440154  CLST      21              1.0000000000
       106        22  DCM       C              -7.9311918281       -9.4086420978        5.6862126555  CLST      22              1.0000000000
       107        22  DCM       H1             -6.8603983550       -9.6226229979        5.4833970120  CLST      22              1.0000000000
       108        22  DCM       H2             -8.4717889227       -9.1456847004        4.7532362903  CLST      22              1.0000000000
       109        22  DCM       CL1            -8.6913566334      -10.8557553725        6.4095103974  CLST      22              1.0000000000
       110        22  DCM       CL2            -8.0429298747       -8.0336065525        6.8194936937  CLST      22              1.0000000000
       111        23  DCM       C               4.8216232567        4.3297385042        7.8104648487  CLST      23              1.0000000000
       112        23  DCM       H1              5.5727563573        5.0584681948        7.4393803716  CLST      23              1.0000000000
       113        23  DCM       H2              5.1806378837        3.8245264798        8.7313348962  CLST      23              1.0000000000
       114        23  DCM       CL1             4.5285330223        3.1004570772        6.5469782884  CLST      23              1.0000000000
       115        23  DCM       CL2             3.2998395302        5.1920548880        8.1754178274  CLST      23              1.0000000000
       116        24  DCM       C               2.0329025034       -6.5594630874       -5.1527696583  CLST      24              1.0000000000
       117        24  DCM       H1              1.9370071951       -7.4772514808       -4.5374363952  CLST      24              1.0000000000
       118        24  DCM       H2              2.6950116649       -5.8237416793       -4.6526783154  CLST      24              1.0000000000
       119        24  DCM       CL1             2.7351647195       -6.9862931029       -6.7387008729  CLST      24              1.0000000000
       120        24  DCM       CL2             0.4141769990       -5.8320358341       -5.3753447103  CLST      24              1.0000000000
       121        25  DCM       C               3.5498650362        0.2418333318       -8.6753832530  CLST      25              1.0000000000
       122        25  DCM       H1              3.1999349042       -0.6352038901       -8.0945492209  CLST      25              1.0000000000
       123        25  DCM       H2              3.9342428142        1.0332615637       -7.9989894720  CLST      25              1.0000000000
       124        25  DCM       CL1             4.8637486124       -0.2728224666       -9.7707015223  CLST      25              1.0000000000
       125        25  DCM       CL2             2.1807317047        0.8899218987       -9.6239548047  CLST      25              1.0000000000
       126        26  DCM       C              -2.4825267757       13.3238260510        1.6041267170  CLST      26              1.0000000000
       127        26  DCM       H1             -1.5134184896       13.0700675623        2.0843368481  CLST      26              1.0000000000
       128        26  DCM       H2             -2.7479688045       14.3881478978        1.7767674636  CLST      26              1.0000000000
       129        26  DCM       CL1            -2.3531568715       13.0351604628       -0.1545304646  CLST      26              1.0000000000
       130        26  DCM       CL2            -3.7637448898       12.2848513000        2.2916796416  CLST      26              1.0000000000
       131        27  DCM       C             -10.2288544852       -3.3949381016        3.9461180249  CLST      27              1.0000000000
       132        27  DCM       H1             -9.5077040470       -4.1700300824        4.2861569537  CLST      27              1.0000000000
       133        27  DCM       H2            -11.2233100672       -3.8433428419        3.7333432993  CLST      27              1.0000000000
       134        27  DCM       CL1           -10.4065608324       -2.1669692869        5.2289219576  CLST      27              1.0000000000
       135        27  DCM       CL2            -9.5986429517       -2.6357307459        2.4532935483  CLST      27              1.0000000000
       136        28  DCM       C              -2.5158541501        5.7532477339       -6.5440360806  CLST      28              1.0000000000
       137        28  DCM       H1             -1.9875327515        5.1998490255       -7.3436380878  CLST      28              1.0000000000
       138        28  DCM       H2             -3.5833080553        5.4622462088       -6.4873128099  CLST      28              1.0000000000
       139        28  DCM       CL1            -1.7330303758        5.3915279654       -4.9794442070  CLST      28              1.0000000000
       140        28  DCM       CL2            -2.4143808031        7.5058498117       -6.8846035252  CLST      28              1.0000000000
       141        29  DCM       C               4.6594185545        8.7765835804       -5.9895108770  CLST      29              1.0000000000
       142        29  DCM       H1              3.7942858732        9.4636188333       -5.8801525905  CLST      29              1.0000000000
       143        29  DCM       H2              5.3349853268        9.1126208172       -6.8028892363  CLST      29              1.0000000000
       144        29  DCM       CL1             5.5728318206        8.7356926757       -4.4543265150  CLST      29              1.0000000000
       145        29  DCM       CL2             4.0540220891        7.1440582911       -6.3791485337  CLST      29              1.0000000000
       146        30  DCM       C              11.1857875790        7.0266096648       -5.2144218814  CLST      30              1.0000000000
       147        30  DCM       H1             10.6488513320        7.0298684843       -6.1857892823  CLST      30              1.0000000000
       148        30  DCM       H2             11.5773454366        8.0375456888       -4.9728467681  CLST      30              1.0000000000
       149        30  DCM       CL1            10.0559513270        6.5180527342       -3.9250719908  CLST      30              1.0000000000
       150        30  DCM       CL2            12.5539755500        5.8796561328       -5.3092752171  CLST      30              1.0000000000
       151        31  DCM       C              -5.2976817968      -10.0296083427       12.9840646073  CLST      31              1.0000000000
       152        31  DCM       H1             -4.6507599291      -10.2341558714       13.8631546553  CLST      31              1.0000000000
       153        31  DCM       H2             -5.2755815163      -10.8758117316       12.2650856137  CLST      31              1.0000000000
       154        31  DCM       CL1            -6.9784343294       -9.7847162840       13.5439602589  CLST      31              1.0000000000
       155        31  DCM       CL2            -4.7106608852       -8.5547236345       12.1614440405  CLST      31              1.0000000000
       156        32  DCM       C               6.1061513255        1.4956461413       -5.7378717745  CLST      32              1.0000000000
       157        32  DCM       H1              6.7189199464        1.8288647026       -4.8724132288  CLST      32              1.0000000000
       158        32  DCM       H2              5.1776693646        2.0973807952       -5.8169746345  CLST      32              1.0000000000
       159        32  DCM       CL1             7.0583024497        1.6863110563       -7.2355497987  CLST      32              1.0000000000
       160        32  DCM       CL2             5.6666115045       -0.2221790233       -5.5279554530  CLST      32              1.0000000000
       161        33  DCM       C               3.3870941474       10.7905484668        3.3200704714  CLST      33              1.0000000000
       162        33  DCM       H1              4.2868770930       11.1601137948        2.7855467234  CLST      33              1.0000000000
       163        33  DCM       H2              3.6167053959       10.5674873147        4.3841352390  CLST      33              1.0000000000
       164        33  DCM       CL1             2.8154460141        9.2948392737        2.5319341095  CLST      33              1.0000000000
       165        33  DCM       CL2             2.1061019501       12.0360834912        3.2466888001  CLST      33              1.0000000000
       166        34  DCM       C               6.5747180858       -5.9576406295       -0.9554226449  CLST      34              1.0000000000
       167        34  DCM       H1              5.4941486728       -5.8967149173       -1.2006280976  CLST      34              1.0000000000
       168        34  DCM       H2              7.1962526959       -5.8808193497       -1.8727980552  CLST      34              1.0000000000
       169        34  DCM       CL1             6.8962840003       -7.5267115768       -0.1624532829  CLST      34              1.0000000000
       170        34  DCM       CL2             7.0010968951       -4.6178314780        0.1470250665  CLST      34              1.0000000000
       171        35  DCM       C               5.4806636402       12.7209980287       -7.4961278235  CLST      35              1.0000000000
       172        35  DCM       H1              5.3551333940       13.8026876593       -7.2815869684  CLST      35              1.0000000000
       173        35  DCM       H2              6.0456545670       12.5606698755       -8.4386776673  CLST      35              1.0000000000
       174        35  DCM       CL1             3.8676710037       11.9686488079       -7.6541324502  CLST      35              1.0000000000
       175        35  DCM       CL2             6.3743496513       11.9628047428       -6.1453476929  CLST      35              1.0000000000
       176        36  DCM       C               3.7143906038        1.9478755423        1.1198670388  CLST      36              1.0000000000
       177        36  DCM       H1              3.4569112581        2.8746589879        1.6753325549  CLST      36              1.0000000000
       178        36  DCM       H2              2.8120440982        1.3262633625        0.9410253919  CLST      36              1.0000000000
       179        36  DCM       CL1             4.4332399054        2.3934422624       -0.4559547170  CLST      36              1.0000000000
       180        36  DCM       CL2             4.8876578645        1.0028404993        2.0807595504  CLST      36              1.0000000000
       181        37  DCM       C              13.4273253198      -10.9637484110       10.6899914259  CLST      37              1.0000000000
       182        37  DCM       H1             13.9415810579      -11.8831380010       11.0430223457  CLST      37              1.0000000000
       183        37  DCM       H2             12.7148544617      -10.5879204393       11.4554405317  CLST      37              1.0000000000
       184        37  DCM       CL1            14.6497516737       -9.7020156160       10.3617474545  CLST      37              1.0000000000
       185        37  DCM       CL2            12.5235337590      -11.3386752389        9.1937293506  CLST      37              1.0000000000
       186        38  DCM       C               4.0911733561        6.9912783513        4.8972662375  CLST      38              1.0000000000
       187        38  DCM       H1              3.5022508578        6.7800292786        3.9792736171  CLST      38              1.0000000000
       188        38  DCM       H2              4.3549130962        6.0507461536        5.4242330866  CLST      38              1.0000000000
       189        38  DCM       CL1             5.5914126297        7.8494919657        4.4404418617  CLST      38              1.0000000000
       190        38  DCM       CL2             3.1151821800        8.0167313802        5.9836182044  CLST      38              1.0000000000
       191        39  DCM       C             -10.2226410874        7.3183378256       -0.7224723430  CLST      39              1.0000000000
       192        39  DCM       H1            -10.1715590139        7.6648745535        0.3311070136  CLST      39              1.0000000000
       193        39  DCM       H2            -11.2356964086        7.4793903795       -1.1477043629  CLST      39              1.0000000000
       194        39  DCM       CL1            -9.0332839789        8.2330537530       -1.6952624251  CLST      39              1.0000000000
       195        39  DCM       CL2            -9.8404002927        5.5733694138       -0.7746503535  CLST      39              1.0000000000
       196        40  DCM       C             -11.1220925095      -10.3740285065        9.8655136196  CLST      40              1.0000000000
       197        40  DCM       H1            -12.1492516639      -10.7298819730       10.0923684410  CLST      40              1.0000000000
       198        40  DCM       H2            -10.4697598766      -11.2131606347        9.5433766728  CLST      40              1.0000000000
       199        40  DCM       CL1           -11.2039474942       -9.1657877120        8.5520261382  CLST      40              1.0000000000
       200        40  DCM       CL2           -10.4299533666       -9.6256987343       11.3342540241  CLST      40              1.0000000000
       201        41  DCM       C               0.4584808233        4.1338615657       10.2502117510  CLST      41              1.0000000000
       202        41  DCM       H1              1.2475887458        3.4309843552        9.9135487028  CLST      41              1.0000000000
       203        41  DCM       H2             -0.3058305092        3.6137031563       10.8645658200  CLST      41              1.0000000000
       204        41  DCM       CL1             1.2094738844        5.4310965556       11.2250983154  CLST      41              1.0000000000
       205        41  DCM       CL2            -0.3287745507        4.8344453477        8.8093188361  CLST      41              1.0000000000
       206        42  DCM       C              -6.1607554779        0.1663456776       -8.9393667998  CLST      42              1.0000000000
       207        42  DCM       H1             -7.0490457308        0.8119247350       -8.7754960037  CLST      42              1.0000000000
       208        42  DCM       H2             -5.7681257993        0.2752373193       -9.9722976666  CLST      42              1.0000000000
       209        42  DCM       CL1            -4.8817418993        0.6284292479       -7.7804230395  CLST      42              1.0000000000
       210        42  DCM       CL2            -6.6313516701       -1.5357773535       -8.6729489747  CLST      42              1.0000000000
       211        43  DCM       C              -4.5945208104        9.7082943999       10.0913285652  CLST      43              1.0000000000
       212        43  DCM       H1             -4.0593064045        9.4697307589        9.1490045412  CLST      43              1.0000000000
       213        43  DCM       H2             -5.3725485399       10.4818633031        9.9221023905  CLST      43              1.0000000000
       214        43  DCM       CL1            -5.3731401684        8.2242641602       10.7130048096  CLST      43              1.0000000000
       215        43  DCM       CL2            -3.4171416793       10.3197801768       11.2879126806  CLST      43              1.0000000000
       216        44  DCM       C              -0.1634071305        7.9437503820        4.3398766947  CLST      44              1.0000000000
       217        44  DCM       H1              0.7387681130        8.5864913662        4.4068898417  CLST      44              1.0000000000
       218        44  DCM       H2             -1.0789436016        8.5620696689        4.2550338035  CLST      44              1.0000000000
       219        44  DCM       CL1            -0.0324119820        6.8956128235        2.8997935717  CLST      44              1.0000000000
       220        44  DCM       CL2            -0.2747541957        6.9356318513        5.8080101366  CLST      44              1.0000000000
       221        45  DCM       C               6.7880507591        6.2929575193       11.3405049999  CLST      45              1.0000000000
       222        45  DCM       H1              7.1687109496        5.9840499790       12.3370476387  CLST      45              1.0000000000
       223        45  DCM       H2              7.0098255294        7.3628631914       11.1402685196  CLST      45              1.0000000000
       224        45  DCM       CL1             7.5685390288        5.2920046904       10.0818786756  CLST      45              1.0000000000
       225        45  DCM       CL2             5.0186027493        6.0503576839       11.2947680749  CLST      45              1.0000000000
       226        46  DCM       C              -3.1645223847        2.9204067685       -0.2115657784  CLST      46              1.0000000000
       227        46  DCM       H1             -4.1154308396        2.3509188367       -0.1539854142  CLST      46              1.0000000000
       228        46  DCM       H2             -2.2902747386        2.2365906648       -0.2407221310  CLST      46              1.0000000000
       229        46  DCM       CL1            -3.1708684777        3.9159327882       -1.6965261531  CLST      46              1.0000000000
       230        46  DCM       CL2            -3.0347770900        3.9709374540        1.2291765284  CLST      46              1.0000000000
       231        47  DCM       C              -4.7011397346       11.7485878020       -5.8186572254  CLST      47              1.0000000000
       232        47  DCM       H1             -3.6697216994       11.9803928713       -5.4773446774  CLST      47              1.0000000000
       233        47  DCM       H2             -5.1743891484       12.6370888741       -6.2877544409  CLST      47              1.0000000000
       234        47  DCM       CL1            -4.6351933134       10.4246623651       -7.0184638485  CLST      47              1.0000000000
       235        47  DCM       CL2            -5.6818340024       11.2461954859       -4.4099907147  CLST      47              1.0000000000
       236        48  DCM       C               1.4259907005        7.5215308413       -9.1784113728  CLST      48              1.0000000000
       237        48  DCM       H1              2.3921994970        7.1185455308       -9.5467965772  CLST      48              1.0000000000
       238        48  DCM       H2              0.7116774942        7.6585142157      -10.0157673773  CLST      48              1.0000000000
       239        48  DCM       CL1             0.7240950571        6.3823819398       -7.9955064653  CLST      48              1.0000000000
       240        48  DCM       CL2             1.7256914842        9.0982017767       -8.3961432581  CLST      48              1.0000000000
       241        49  DCM       C               5.8497965314      -10.9410550326      -11.6799540747  CLST      49              1.0000000000
       242        49  DCM       H1              5.7473502130       -9.9924880314      -12.2503275926  CLST      49              1.0000000000
       243        49  DCM       H2              6.8244604081      -11.4279966296      -11.8927074095  CLST      49              1.0000000000
       244        49  DCM       CL1             4.5290786121      -12.0489849222      -12.1513379621  CLST      49              1.0000000000
       245        49  DCM       CL2             5.7494994413      -10.5832997340       -9.9316058119  CLST      49              1.0000000000
       246        50  DCM       C              -4.1118958766        3.8070186294       -9.2108015784  CLST      50              1.0000000000
       247        50  DCM       H1             -4.7702557562        3.1542519320       -9.8216273149  CLST      50              1.0000000000
       248        50  DCM       H2             -4.1202079460        3.4944613517       -8.1454258080  CLST      50              1.0000000000
       249        50  DCM       CL1            -2.4393858978        3.6962785826       -9.8323462078  CLST      50              1.0000000000
       250        50  DCM       CL2            -4.6942541191        5.4930407753       -9.3267847190  CLST      50              1.0000000000
       251        51  DCM       C              -4.4151784522        5.4358009099        7.8173347846  CLST      51              1.0000000000
       252        51  DCM       H1             -5.1533380227        5.7887318611        7.0673668040  CLST      51              1.0000000000
       253        51  DCM       H2             -4.9163190611        5.1644741674        8.7703847209  CLST      51              1.0000000000
       254        51  DCM       CL1            -3.5676632987        3.9998696921        7.1738413385  CLST      51              1.0000000000
       255        51  DCM       CL2            -3.2377249104        6.7409772111        8.1264253706  CLST      51              1.0000000000
       256        52  DCM       C              -4.9536263941       -6.1313962655        7.3244939218  CLST      52              1.0000000000
       257        52  DCM       H1             -5.8672563548       -5.6944813284        6.8689311286  CLST      52              1.0000000000
       258        52  DCM       H2             -4.1209355490       -5.3968636388        7.3351475108  CLST      52              1.0000000000
       259        52  DCM       CL1            -4.4555458095       -7.5630619906        6.3753426720  CLST      52              1.0000000000
       260        52  DCM       CL2            -5.3220605175       -6.6150844363        9.0050048773  CLST      52              1.0000000000
       261        53  DCM       C               8.7101187061       -0.5191678022       -3.8000885918  CLST      53              1.0000000000
       262        53  DCM       H1              8.6381775786       -0.0047889872       -4.7811912204  CLST      53              1.0000000000
       263        53  DCM       H2              8.1177511789       -1.4581245533       -3.7978595426  CLST      53              1.0000000000
       264        53  DCM       CL1            10.4243810220       -0.9093642137       -3.4780812489  CLST      53              1.0000000000
       265        53  DCM       CL2             8.0838359825        0.5674050011       -2.5240094753  CLST      53              1.0000000000
       266        54  DCM       C              -3.5184302046        6.4971951437        4.0912431331  CLST      54              1.0000000000
       267        54  DCM       H1             -2.9960420743        6.3691588468        5.0619372781  CLST      54              1.0000000000
       268        54  DCM       H2             -2.8888067848        6.1388270944        3.2500979864  CLST      54              1.0000000000
       269        54  DCM       CL1            -3.8915711603        8.2298571014        3.8478000500  CLST      54              1.0000000000
       270        54  DCM       CL2            -5.0309600597        5.5504887760        4.1267363647  CLST      54              1.0000000000
       271        55  DCM       C               3.2378362865       -3.2750338511       -6.5914671175  CLST      55              1.0000000000
       272        55  DCM       H1              2.3849124285       -3.9798234323       -6.5104391020  CLST      55              1.0000000000
       273        55  DCM       H2              2.8891750722       -2.2258470366       -6.5063341456  CLST      55              1.0000000000
       274        55  DCM       CL1             4.4019375815       -3.6007469245       -5.2792565218  CLST      55              1.0000000000
       275        55  DCM       CL2             4.0354250827       -3.5102342499       -8.1726189857  CLST      55              1.0000000000
       276        56  DCM       C              -4.7911278270       -4.0048176560       -4.3923304685  CLST      56              1.0000000000
       277        56  DCM       H1             -4.2470325211       -4.9683147610       -4.4855345659  CLST      56              1.0000000000
       278        56  DCM       H2             -5.3835163377       -3.9669494640       -3.4544605416  CLST      56              1.0000000000
       279        56  DCM       CL1            -3.6048614372       -2.6652585416       -4.3830652775  CLST      56              1.0000000000
       280        56  DCM       CL2            -5.9000070118       -3.8285562774       -5.7837409498  CLST      56              1.0000000000
       281        57  DCM       C              -7.5972899568       -5.1841431787       -8.8029929402  CLST      57              1.0000000000
       282        57  DCM       H1             -8.2399508192       -5.3874947056       -9.6826661881  CLST      57              1.0000000000
       283        57  DCM       H2             -7.8038999618       -4.1873047800       -8.3714462366  CLST      57              1.0000000000
       284        57  DCM       CL1            -7.9123623091       -6.4269079258       -7.5529124908  CLST      57              1.0000000000
       285        57  DCM       CL2            -5.8784845922       -5.2543324194       -9.3071997634  CLST      57              1.0000000000
       286        58  DCM       C              -3.2135044328       -2.5689890618       -9.7354483288  CLST      58              1.0000000000
       287        58  DCM       H1             -4.2477002168       -2.7777090600      -10.0794352663  CLST      58              1.0000000000
       288        58  DCM       H2             -2.4976625828       -3.3075854078      -10.1572452987  CLST      58              1.0000000000
       289        58  DCM       CL1            -2.7430845024       -0.9260116304      -10.2626164799  CLST      58              1.0000000000
       290        58  DCM       CL2            -3.1642238292       -2.6721301045       -7.9528447457  CLST      58              1.0000000000
       291        59  DCM       C               4.7380965606        9.3308414561       -0.5014528345  CLST      59              1.0000000000
       292        59  DCM       H1              3.9003786204        8.6308093506       -0.2998125854  CLST      59              1.0000000000
       293        59  DCM       H2              5.1448078990        9.1819812994       -1.5234954540  CLST      59              1.0000000000
       294        59  DCM       CL1             4.1439413556       11.0100131389       -0.3485917149  CLST      59              1.0000000000
       295        59  DCM       CL2             6.0362859267        9.0413406676        0.6938842629  CLST      59              1.0000000000
       296        60  DCM       C              -6.6516022138        4.3805739626       -6.1407735881  CLST      60              1.0000000000
       297        60  DCM       H1             -6.2252601468        5.3391453697       -6.5047312617  CLST      60              1.0000000000
       298        60  DCM       H2             -7.4330715713        4.5580101080       -5.3731928500  CLST      60              1.0000000000
       299        60  DCM       CL1            -5.3490416412        3.3960535886       -5.4180687537  CLST      60              1.0000000000
       300        60  DCM       CL2            -7.3739413163        3.5073949679       -7.5211385858  CLST      60              1.0000000000
       301        61  DCM       C              13.0690332303       -8.2938946740        7.2947754658  CLST      61              1.0000000000
       302        61  DCM       H1             12.1380278208       -8.6208917700        7.8024386499  CLST      61              1.0000000000
       303        61  DCM       H2             13.8600500039       -9.0694083219        7.3734785667  CLST      61              1.0000000000
       304        61  DCM       CL1            12.7137062548       -7.9980222936        5.5678220077  CLST      61              1.0000000000
       305        61  DCM       CL2            13.6522091050       -6.7879590023        8.0625298840  CLST      61              1.0000000000
       306        62  DCM       C              -2.5593032247        9.4837301690       -3.6012806128  CLST      62              1.0000000000
       307        62  DCM       H1             -2.3964354972        9.3399613649       -4.6877761365  CLST      62              1.0000000000
       308        62  DCM       H2             -3.6366563069        9.4227681157       -3.3503435264  CLST      62              1.0000000000
       309        62  DCM       CL1            -1.9447648334       11.0892244920       -3.1193610835  CLST      62              1.0000000000
       310        62  DCM       CL2            -1.6829289043        8.2087331601       -2.7125472512  CLST      62              1.0000000000
       311        63  DCM       C               2.5558932043        9.7646022240      -12.0901902293  CLST      63              1.0000000000
       312        63  DCM       H1              2.4831258676       10.3077264728      -13.0583270868  CLST      63              1.0000000000
       313        63  DCM       H2              1.5832830759        9.7753347549      -11.5536006816  CLST      63              1.0000000000
       314        63  DCM       CL1             3.0225810519        8.0678543919      -12.4060861887  CLST      63              1.0000000000
       315        63  DCM       CL2             3.7928840858       10.5538728206      -11.0710519356  CLST      63              1.0000000000
       316        64  DCM       C              -3.1344680285        5.1599985404       11.4152903916  CLST      64              1.0000000000
       317        64  DCM       H1             -4.2218874293        5.3679954147       11.5039841426  CLST      64              1.0000000000
       318        64  DCM       H2             -2.8769583511        4.8028241365       10.3964421491  CLST      64              1.0000000000
       319        64  DCM       CL1            -2.2276258135        6.6625337881       11.7500622423  CLST      64              1.0000000000
       320        64  DCM       CL2            -2.6803428457        3.9020701728       12.6007093182  CLST      64              1.0000000000
       321        65  DCM       C               6.5002374481        9.6327469053        7.5909594461  CLST      65              1.0000000000
       322        65  DCM       H1              7.0270322476        9.5778954403        6.6145595698  CLST      65              1.0000000000
       323        65  DCM       H2              7.1504419693       10.0788504599        8.3728575330  CLST      65              1.0000000000
       324        65  DCM       CL1             5.0372967339       10.6449448372        7.4063483697  CLST      65              1.0000000000
       325        65  DCM       CL2             6.0394412306        7.9805619859        8.0947479036  CLST      65              1.0000000000
       326        66  DCM       C               1.7664531913       11.2692906300       -3.0457268340  CLST      66              1.0000000000
       327        66  DCM       H1              0.9515152798       11.0302481205       -3.7598382563  CLST      66              1.0000000000
       328        66  DCM       H2              1.9571863855       10.4157481194       -2.3627978720  CLST      66              1.0000000000
       329        66  DCM       CL1             3.2610267898       11.6200413622       -3.9587550962  CLST      66              1.0000000000
       330        66  DCM       CL2             1.2936270414       12.7024048250       -2.0875532224  CLST      66              1.0000000000
       331        67  DCM       C              -7.2290150809      -10.1754075197        9.7456448365  CLST      67              1.0000000000
       332        67  DCM       H1             -8.0737485722       -9.8591961281        9.1001289338  CLST      67              1.0000000000
       333        67  DCM       H2             -7.0911108916       -9.4641281301       10.5863963112  CLST      67              1.0000000000
       334        67  DCM       CL1            -7.5795996716      -11.8016030204       10.3986129780  CLST      67              1.0000000000
       335        67  DCM       CL2            -5.7319717748      -10.2276872273        8.7714452673  CLST      67              1.0000000000
       336        68  DCM       C               3.8780638462        2.4638491102       11.1718563521  CLST      68              1.0000000000
       337        68  DCM       H1              3.5995991019        3.5167052409       10.9566748636  CLST      68              1.0000000000
       338        68  DCM       H2              3.3652444149        2.0935292538       12.0849420246  CLST      68              1.0000000000
       339        68  DCM       CL1             3.4054529009        1.4448162432        9.7812358087  CLST      68              1.0000000000
       340        68  DCM       CL2             5.6457927033        2.3704455476       11.4184209886  CLST      68              1.0000000000
       341        69  DCM       C              12.1536781865       -7.1826219351       11.5822916500  CLST      69              1.0000000000
       342        69  DCM       H1             11.6932741827       -6.2001423614       11.8181357806  CLST      69              1.0000000000
       343        69  DCM       H2             13.1150169516       -7.0525606247       11.0407175123  CLST      69              1.0000000000
       344        69  DCM       CL1            12.4565462820       -8.0635897017       13.1084279236  CLST      69              1.0000000000
       345        69  DCM       CL2            11.0272505291       -8.1173546520       10.5560495105  CLST      69              1.0000000000
       346        70  DCM       C              -7.9843871898        2.6414712967       -2.6906579854  CLST      70              1.0000000000
       347        70  DCM       H1             -7.9010562202        2.5703467917       -3.7950913421  CLST      70              1.0000000000
       348        70  DCM       H2             -8.2469245834        3.6723108736       -2.3751917006  CLST      70              1.0000000000
       349        70  DCM       CL1            -9.2615809661        1.5258962118       -2.1293122469  CLST      70              1.0000000000
       350        70  DCM       CL2            -6.4175287621        2.1929728600       -1.9604064600  CLST      70              1.0000000000
       351        71  DCM       C               9.5940013240        3.7666128778       -9.3686478712  CLST      71              1.0000000000
       352        71  DCM       H1              9.2199053964        2.8664644640       -8.8391448886  CLST      71              1.0000000000
       353        71  DCM       H2             10.2568788436        3.4875115406      -10.2133941049  CLST      71              1.0000000000
       354        71  DCM       CL1             8.2005194987        4.6904973609      -10.0022803098  CLST      71              1.0000000000
       355        71  DCM       CL2            10.5144209457        4.7779318795       -8.2171346834  CLST      71              1.0000000000
       356        72  DCM       C               2.2928090073       -0.5971480709       -3.9537164437  CLST      72              1.0000000000
       357        72  DCM       H1              2.1970448812        0.0172598860       -3.0356432574  CLST      72              1.0000000000
       358        72  DCM       H2              3.2694448990       -1.1235618387       -3.9756879241  CLST      72              1.0000000000
       359        72  DCM       CL1             0.9818113536       -1.8120102550       -3.9875395552  CLST      72              1.0000000000
       360        72  DCM       CL2             2.1648192365        0.4709595461       -5.3822157287  CLST      72              1.0000000000
       361        73  DCM       C              -6.7357965557        9.7805167532      -11.0527818408  CLST      73              1.0000000000
       362        73  DCM       H1             -7.1356654459        9.2309648801      -11.9346837209  CLST      73              1.0000000000
       363        73  DCM       H2             -6.4625719303       10.8220112839      -11.3207703057  CLST      73              1.0000000000
       364        73  DCM       CL1            -7.9831231994        9.8119780977       -9.7764020641  CLST      73              1.0000000000
       365        73  DCM       CL2            -5.2772930489        8.9276128237      -10.4556424690  CLST      73              1.0000000000
       366        74  DCM       C              -1.9397142969        0.5634497207       -5.5225562144  CLST      74              1.0000000000
       367        74  DCM       H1             -2.4073414405       -0.2471847967       -6.1206401738  CLST      74              1.0000000000
       368        74  DCM       H2             -0.9701867628        0.2331053386       -5.0954872757  CLST      74              1.0000000000
       369        74  DCM       CL1            -1.6587695453        1.9799537197       -6.5781041737  CLST      74              1.0000000000
       370        74  DCM       CL2            -3.0389081132        1.0109499810       -4.1855831781  CLST      74              1.0000000000
       371        75  DCM       C               6.9392480036      -14.2811021743      -10.0746410664  CLST      75              1.0000000000
       372        75  DCM       H1              6.8577438797      -15.2667599490       -9.5692134794  CLST      75              1.0000000000
       373        75  DCM       H2              5.9891267879      -13.7115454359       -9.9937812160  CLST      75              1.0000000000
       374        75  DCM       CL1             8.2492888290      -13.3397269099       -9.3049847777  CLST      75              1.0000000000
       375        75  DCM       CL2             7.3169678272      -14.5430811202      -11.8021556765  CLST      75              1.0000000000
       376        76  DCM       C              -6.1976018897       -6.9017257256        2.9415065034  CLST      76              1.0000000000
       377        76  DCM       H1             -5.8022492389       -6.2781292416        2.1116752978  CLST      76              1.0000000000
       378        76  DCM       H2             -5.3761214920       -7.4292232545        3.4714124357  CLST      76              1.0000000000
       379        76  DCM       CL1            -7.0568817551       -5.8464170259        4.1006273459  CLST      76              1.0000000000
       380        76  DCM       CL2            -7.3273467474       -8.1127957612        2.2694886900  CLST      76              1.0000000000
       381        77  DCM       C             -10.8784914977        4.4298901978       -4.2801767184  CLST      77              1.0000000000
       382        77  DCM       H1            -11.9210397541        4.7366913148       -4.5085023272  CLST      77              1.0000000000
       383        77  DCM       H2            -10.7987750118        4.0251994074       -3.2488007933  CLST      77              1.0000000000
       384        77  DCM       CL1           -10.3785040855        3.1668987489       -5.4414449176  CLST      77              1.0000000000
       385        77  DCM       CL2            -9.8069283638        5.8524053727       -4.4349108478  CLST      77              1.0000000000
       386        78  DCM       C               9.9215975414      -12.1089658342      -12.4431078412  CLST      78              1.0000000000
       387        78  DCM       H1              9.3173203545      -11.7584421024      -11.5807585638  CLST      78              1.0000000000
       388        78  DCM       H2             10.1515819338      -13.1916581358      -12.3544611250  CLST      78              1.0000000000
       389        78  DCM       CL1             8.9958411312      -11.8296531455      -13.9470336895  CLST      78              1.0000000000
       390        78  DCM       CL2            11.4524056190      -11.1874254684      -12.4904204293  CLST      78              1.0000000000
       391        79  DCM       C               7.0774493732        5.2715225034       -6.5632971601  CLST      79              1.0000000000
       392        79  DCM       H1              6.1934887531        5.1451614775       -7.2220467907  CLST      79              1.0000000000
       393        79  DCM       H2              7.8572018318        4.5173179775       -6.7917699253  CLST      79              1.0000000000
       394        79  DCM       CL1             6.5653155635        5.0799945015       -4.8600972553  CLST      79              1.0000000000
       395        79  DCM       CL2             7.7605700006        6.9032581674       -6.8202629646  CLST      79              1.0000000000
       396        80  DCM       C              -1.6427203130        9.8014521661       -9.9310649306  CLST      80              1.0000000000
       397        80  DCM       H1             -2.6820371528       10.1517283294       -9.7633501067  CLST      80              1.0000000000
       398        80  DCM       H2             -1.2606058547        9.2587184204       -9.0385072026  CLST      80              1.0000000000
       399        80  DCM       CL1            -1.6115828554        8.6947047402      -11.3358530517  CLST      80              1.0000000000
       400        80  DCM       CL2            -0.5982103439       11.2158066889      -10.2503375520  CLST      80              1.0000000000
       401        81  DCM       C               9.6602819313       -8.4450726045      -10.6331767608  CLST      81              1.0000000000
       402        81  DCM       H1              9.4959663825       -7.4548698408      -10.1581102713  CLST      81              1.0000000000
       403        81  DCM       H2             10.7035024211       -8.5448595147      -11.0011492130  CLST      81              1.0000000000
       404        81  DCM       CL1             9.3438395168       -9.7270285558       -9.4281241529  CLST      81              1.0000000000
       405        81  DCM       CL2             8.5388519429       -8.6197862922      -12.0141398102  CLST      81              1.0000000000
       406        82  DCM       C               0.7115747428      -10.0944357427       -5.3702595778  CLST      82              1.0000000000
       407        82  DCM       H1              0.1231899522      -10.9808254093       -5.6886963855  CLST      82              1.0000000000
       408        82  DCM       H2              0.5081112577       -9.2213846043       -6.0264802162  CLST      82              1.0000000000
       409        82  DCM       CL1             0.2687155065       -9.6763482169       -3.6890704560  CLST      82              1.0000000000
       410        82  DCM       CL2             2.4517434606      -10.4939305395       -5.4570774003  CLST      82              1.0000000000
       411        83  DCM       C               0.1749548778       10.3240740102        0.2455105191  CLST      83              1.0000000000
       412        83  DCM       H1             -0.4563316367       10.7170052552       -0.5777576278  CLST      83              1.0000000000
       413        83  DCM       H2              1.0039490230       11.0228341275        0.4862322189  CLST      83              1.0000000000
       414        83  DCM       CL1            -0.8397338372       10.1055769279        1.6969179639  CLST      83              1.0000000000
       415        83  DCM       CL2             0.8605632910        8.7546939253       -0.2583135354  CLST      83              1.0000000000
       416        84  DCM       C               1.4089004662       -4.7886078930       -1.4780825407  CLST      84              1.0000000000
       417        84  DCM       H1              0.7787446167       -4.0583684142       -2.0267946489  CLST      84              1.0000000000
       418        84  DCM       H2              1.4149342538       -4.5741367226       -0.3880795531  CLST      84              1.0000000000
       419        84  DCM       CL1             0.7616021148       -6.4330576826       -1.7442331678  CLST      84              1.0000000000
       420        84  DCM       CL2             3.0822870719       -4.6876236720       -2.0922595400  CLST      84              1.0000000000
       421        85  DCM       C             -11.4760426697      -11.6877960801        4.1302580480  CLST      85              1.0000000000
       422        85  DCM       H1            -10.7866740328      -12.4033366400        4.6266517836  CLST      85              1.0000000000
       423        85  DCM       H2            -12.2121493578      -12.2190601545        3.4905455345  CLST      85              1.0000000000
       424        85  DCM       CL1           -12.3547328392      -10.7641123951        5.3835205293  CLST      85              1.0000000000
       425        85  DCM       CL2           -10.5200717395      -10.5719771738        3.1118955047  CLST      85              1.0000000000
       426        86  DCM       C              -0.2230616241        8.9951166250        9.9410917165  CLST      86              1.0000000000
       427        86  DCM       H1             -0.0503036695        8.5531882357       10.9454100265  CLST      86              1.0000000000
       428        86  DCM       H2             -1.2543349723        8.7839673373        9.5864709661  CLST      86              1.0000000000
       429        86  DCM       CL1             0.0192221586       10.7636586681       10.0328389295  CLST      86              1.0000000000
       430        86  DCM       CL2             0.9424224379        8.2888673849        8.7891190063  CLST      86              1.0000000000
       431        87  DCM       C              -3.7991404428        9.1643904970        0.0675605837  CLST      87              1.0000000000
       432        87  DCM       H1             -2.9757979721        9.7208401185       -0.4267081111  CLST      87              1.0000000000
       433        87  DCM       H2             -4.0257835366        9.5961712210        1.0640033086  CLST      87              1.0000000000
       434        87  DCM       CL1            -5.2605534794        9.2553036766       -0.9582889129  CLST      87              1.0000000000
       435        87  DCM       CL2            -3.3069118796        7.4589791162        0.2796184083  CLST      87              1.0000000000
       436        88  DCM       C               3.3541904499        4.2421121528       -8.5992922713  CLST      88              1.0000000000
       437        88  DCM       H1              2.4812587570        3.9172517410       -9.2044861999  CLST      88              1.0000000000
       438        88  DCM       H2              3.4549355435        5.3457820488       -8.6023159676  CLST      88              1.0000000000
       439        88  DCM       CL1             3.1320936599        3.6933654683       -6.9126789640  CLST      88              1.0000000000
       440        88  DCM       CL2             4.8424956922        3.5393650822       -9.2899149209  CLST      88              1.0000000000
       441        89  DCM       C              -8.1105917740       10.7053369650        1.1479077146  CLST      89              1.0000000000
       442        89  DCM       H1             -8.1356902589       11.8162078274        1.0909029446  CLST      89              1.0000000000
       443        89  DCM       H2             -8.0162811768       10.2566674452        0.1346036816  CLST      89              1.0000000000
       444        89  DCM       CL1            -6.7083018368       10.2077345661        2.1330596113  CLST      89              1.0000000000
       445        89  DCM       CL2            -9.6177377790       10.1245439973        1.9086478886  CLST      89              1.0000000000
       446        90  DCM       C             -11.2975128099       -7.2680397002        5.3661507342  CLST      90              1.0000000000
       447        90  DCM       H1            -10.8520320270       -8.1973653537        5.7780806336  CLST      90              1.0000000000
       448        90  DCM       H2            -12.3999133021       -7.3633292496        5.2730834468  CLST      90              1.0000000000
       449        90  DCM       CL1           -10.9181270426       -5.9063615572        6.4612009433  CLST      90              1.0000000000
       450        90  DCM       CL2           -10.5973509561       -6.9638810576        3.7507689777  CLST      90              1.0000000000
       451        91  DCM       C               6.7619639020        8.3044711587      -10.2345179302  CLST      91              1.0000000000
       452        91  DCM       H1              6.5523874250        8.6685428239      -11.2625410718  CLST      91              1.0000000000
       453        91  DCM       H2              7.6883717622        7.6945007526      -10.2037547323  CLST      91              1.0000000000
       454        91  DCM       CL1             6.9558290807        9.7120273146       -9.1485217146  CLST      91              1.0000000000
       455        91  DCM       CL2             5.3880730675        7.3028926444       -9.6861060273  CLST      91              1.0000000000
       456        92  DCM       C              -8.8855347241        5.9549660566        7.7023205467  CLST      92              1.0000000000
       457        92  DCM       H1             -9.2187017558        6.9815572269        7.4446681288  CLST      92              1.0000000000
       458        92  DCM       H2             -9.7518281327        5.3035818241        7.9437676033  CLST      92              1.0000000000
       459        92  DCM       CL1            -8.0071160324        5.2612632146        6.3086884112  CLST      92              1.0000000000
       460        92  DCM       CL2            -7.8027290885        6.0341754828        9.1221977348  CLST      92              1.0000000000
