* PRE_MLPOT:MONOMER_REPACK
*  DATE:     6/28/26      2: 0: 1      CREATED BY USER: boittier
*
       490  EXT
         1         1  DCM       C              -1.1976968360        2.5753258608       -0.2116398037  CLST      1               1.0000000000
         2         1  DCM       H1             -1.9961099516        1.8886909258        0.1403336485  CLST      1               1.0000000000
         3         1  DCM       H2             -1.0050336230        2.4415807238       -1.2966775682  CLST      1               1.0000000000
         4         1  DCM       CL1            -1.7137159992        4.2595316487        0.0822449859  CLST      1               1.0000000000
         5         1  DCM       CL2             0.3052478810        2.2391062009        0.6973948533  CLST      1               1.0000000000
         6         2  DCM       C              -1.8948328140       -1.6004150509        2.7620363150  CLST      2               1.0000000000
         7         2  DCM       H1             -2.9822924484       -1.3801205746        2.7738439559  CLST      2               1.0000000000
         8         2  DCM       H2             -1.3078862302       -0.7190748970        3.0980843743  CLST      2               1.0000000000
         9         2  DCM       CL1            -1.5783581554       -2.9789219561        3.8475819434  CLST      2               1.0000000000
        10         2  DCM       CL2            -1.4079798081       -2.0250555995        1.1008012062  CLST      2               1.0000000000
        11         3  DCM       C               1.0760614017       -2.6718997030        0.0382177941  CLST      3               1.0000000000
        12         3  DCM       H1              1.1449736254       -2.0187682268       -0.8557034614  CLST      3               1.0000000000
        13         3  DCM       H2              0.4101462029       -3.5391062723       -0.1523027909  CLST      3               1.0000000000
        14         3  DCM       CL1             2.7130528336       -3.2650787132        0.4408851017  CLST      3               1.0000000000
        15         3  DCM       CL2             0.4182102739       -1.7292705511        1.4068722925  CLST      3               1.0000000000
        16         4  DCM       C               0.9870259044       -0.7968948181        1.7138769462  CLST      4               1.0000000000
        17         4  DCM       H1              0.9610406612        0.2383207650        2.1130797265  CLST      4               1.0000000000
        18         4  DCM       H2              2.0122156092       -1.2196749195        1.7655614413  CLST      4               1.0000000000
        19         4  DCM       CL1            -0.1154503680       -1.8181008549        2.6803098965  CLST      4               1.0000000000
        20         4  DCM       CL2             0.4506401629       -0.7738237953        0.0091501960  CLST      4               1.0000000000
        21         5  DCM       C              -2.4259284273        1.0695769592       -0.7819694492  CLST      5               1.0000000000
        22         5  DCM       H1             -1.6836992496        0.3719573611       -0.3428987202  CLST      5               1.0000000000
        23         5  DCM       H2             -3.1210914640        0.5370342028       -1.4636436331  CLST      5               1.0000000000
        24         5  DCM       CL1            -3.3713482647        1.8211118799        0.5360088067  CLST      5               1.0000000000
        25         5  DCM       CL2            -1.5599032783        2.3328185256       -1.7038685586  CLST      5               1.0000000000
        26         6  DCM       C               2.9316867495       -0.8868911814       -0.0036550431  CLST      6               1.0000000000
        27         6  DCM       H1              1.9043537364       -0.8337806768        0.4151326837  CLST      6               1.0000000000
        28         6  DCM       H2              3.6071068528       -0.1730137944        0.5137826307  CLST      6               1.0000000000
        29         6  DCM       CL1             3.5565790929       -2.5463709351        0.2167632453  CLST      6               1.0000000000
        30         6  DCM       CL2             2.8766809440       -0.4838526889       -1.7460814231  CLST      6               1.0000000000
        31         7  DCM       C              -2.8240742740        2.4845026604        0.7743622316  CLST      7               1.0000000000
        32         7  DCM       H1             -3.1205261705        3.4015205754        1.3272988806  CLST      7               1.0000000000
        33         7  DCM       H2             -3.1478934543        2.5368873956       -0.2863031006  CLST      7               1.0000000000
        34         7  DCM       CL1            -3.5905598070        1.0644351665        1.5438236223  CLST      7               1.0000000000
        35         7  DCM       CL2            -1.0450890554        2.3209364471        0.8322767723  CLST      7               1.0000000000
        36         8  DCM       C               0.1843683977        1.2290901434        1.0797746424  CLST      8               1.0000000000
        37         8  DCM       H1              0.1599484751        0.1330315749        0.9008494664  CLST      8               1.0000000000
        38         8  DCM       H2             -0.3671345962        1.7728019778        0.2829758662  CLST      8               1.0000000000
        39         8  DCM       CL1            -0.5769044551        1.5765141894        2.6584314527  CLST      8               1.0000000000
        40         8  DCM       CL2             1.8842111175        1.7789498784        1.0946081668  CLST      8               1.0000000000
        41         9  DCM       C               0.4573007721       -0.8565773495        2.1169345051  CLST      9               1.0000000000
        42         9  DCM       H1              1.5311028582       -0.8360678352        1.8365110412  CLST      9               1.0000000000
        43         9  DCM       H2             -0.0519046417       -1.7498263995        1.6944266020  CLST      9               1.0000000000
        44         9  DCM       CL1             0.3246954127       -0.9058786046        3.8966574484  CLST      9               1.0000000000
        45         9  DCM       CL2            -0.3367589881        0.6176619098        1.4941868336  CLST      9               1.0000000000
        46        10  DCM       C               2.4634109188        2.6443497420       -1.7748134419  CLST      10              1.0000000000
        47        10  DCM       H1              2.8084038745        1.6460950134       -2.1159024936  CLST      10              1.0000000000
        48        10  DCM       H2              3.3191817915        3.3394172053       -1.6564388550  CLST      10              1.0000000000
        49        10  DCM       CL1             1.3347254273        3.3101740776       -2.9879144231  CLST      10              1.0000000000
        50        10  DCM       CL2             1.6368233712        2.4677265285       -0.2008997423  CLST      10              1.0000000000
        51        11  DCM       C              -0.5852397155       -1.5034715539        1.2269481358  CLST      11              1.0000000000
        52        11  DCM       H1              0.3377997008       -1.4261900525        1.8432568030  CLST      11              1.0000000000
        53        11  DCM       H2             -0.8359669571       -0.5254189380        0.7648158961  CLST      11              1.0000000000
        54        11  DCM       CL1            -1.9403657333       -2.0171749716        2.2696099659  CLST      11              1.0000000000
        55        11  DCM       CL2            -0.3253351995       -2.7091443861       -0.0637953566  CLST      11              1.0000000000
        56        12  DCM       C              -2.4536886463       -0.9962108077        2.4399031302  CLST      12              1.0000000000
        57        12  DCM       H1             -3.1340773183       -1.8433809797        2.2162427515  CLST      12              1.0000000000
        58        12  DCM       H2             -2.8907387043       -0.0351158737        2.0966877828  CLST      12              1.0000000000
        59        12  DCM       CL1            -2.1759609378       -0.9191629814        4.2026134720  CLST      12              1.0000000000
        60        12  DCM       CL2            -0.9016245789       -1.2609545122        1.5983990034  CLST      12              1.0000000000
        61        13  DCM       C               2.7994511602       -0.1221556546       -2.6528344283  CLST      13              1.0000000000
        62        13  DCM       H1              2.8346618627       -1.1853054596       -2.3478048060  CLST      13              1.0000000000
        63        13  DCM       H2              1.9546186685        0.4012162753       -2.1587908258  CLST      13              1.0000000000
        64        13  DCM       CL1             4.3325202042        0.6735141178       -2.1901787601  CLST      13              1.0000000000
        65        13  DCM       CL2             2.5849841178       -0.0323437932       -4.4240468228  CLST      13              1.0000000000
        66        14  DCM       C               1.9291343219       -1.2955881891       -1.4188287500  CLST      14              1.0000000000
        67        14  DCM       H1              1.0895650871       -0.7053008487       -0.9943857615  CLST      14              1.0000000000
        68        14  DCM       H2              2.5606072390       -0.6698391512       -2.0837481874  CLST      14              1.0000000000
        69        14  DCM       CL1             2.9335176888       -1.9193004983       -0.0792982932  CLST      14              1.0000000000
        70        14  DCM       CL2             1.2663039028       -2.6605044392       -2.3629005938  CLST      14              1.0000000000
        71        15  DCM       C               0.4865894091        2.0990027646       -0.8721174755  CLST      15              1.0000000000
        72        15  DCM       H1              1.2125440199        2.1368308306       -1.7112629825  CLST      15              1.0000000000
        73        15  DCM       H2             -0.3578772625        1.4164458176       -1.1071574769  CLST      15              1.0000000000
        74        15  DCM       CL1             1.3240547097        1.5146034825        0.5935239451  CLST      15              1.0000000000
        75        15  DCM       CL2            -0.1512625621        3.7431021221       -0.5918901324  CLST      15              1.0000000000
        76        16  DCM       C               0.8697116052        0.0311296469       -0.3457554711  CLST      16              1.0000000000
        77        16  DCM       H1              1.2745256489       -0.6961670503        0.3857347158  CLST      16              1.0000000000
        78        16  DCM       H2              0.3208296894        0.8434657199        0.1722363129  CLST      16              1.0000000000
        79        16  DCM       CL1            -0.2547682638       -0.8127421834       -1.4459839224  CLST      16              1.0000000000
        80        16  DCM       CL2             2.2232516820        0.7331930029       -1.2764792640  CLST      16              1.0000000000
        81        17  DCM       C               1.7472275749        2.2184980806        0.0474828612  CLST      17              1.0000000000
        82        17  DCM       H1              1.0700139425        1.7312941680        0.7806316438  CLST      17              1.0000000000
        83        17  DCM       H2              1.6240143503        1.7762352509       -0.9638616712  CLST      17              1.0000000000
        84        17  DCM       CL1             1.3636557174        3.9628784607       -0.0288085750  CLST      17              1.0000000000
        85        17  DCM       CL2             3.4396265707        1.9916777843        0.5782499731  CLST      17              1.0000000000
        86        18  DCM       C               1.2186169651       -0.0792145613       -3.6621324811  CLST      18              1.0000000000
        87        18  DCM       H1              1.3987831337        1.0040774243       -3.4995135897  CLST      18              1.0000000000
        88        18  DCM       H2              0.1310083515       -0.3006095984       -3.6980342667  CLST      18              1.0000000000
        89        18  DCM       CL1             1.9645208844       -0.5673904826       -5.2098420354  CLST      18              1.0000000000
        90        18  DCM       CL2             1.9554388086       -0.9973558186       -2.3201838832  CLST      18              1.0000000000
        91        19  DCM       C               0.0243515660        0.8282966719        2.6615782848  CLST      19              1.0000000000
        92        19  DCM       H1             -0.1050077142       -0.2370102046        2.9520504350  CLST      19              1.0000000000
        93        19  DCM       H2             -0.3138110663        1.5053327932        3.4770267652  CLST      19              1.0000000000
        94        19  DCM       CL1             1.7492687236        1.1410136305        2.3221828438  CLST      19              1.0000000000
        95        19  DCM       CL2            -0.9434338838        1.1566605767        1.2010669380  CLST      19              1.0000000000
        96        20  DCM       C              -2.7482017281       -2.1417165701        2.8922960916  CLST      20              1.0000000000
        97        20  DCM       H1             -2.6174543328       -3.2003467103        2.5737038191  CLST      20              1.0000000000
        98        20  DCM       H2             -2.6003832316       -2.0402391009        3.9917328647  CLST      20              1.0000000000
        99        20  DCM       CL1            -4.3977827074       -1.6057881841        2.4727434633  CLST      20              1.0000000000
       100        20  DCM       CL2            -1.5503330648       -1.1265903174        2.0445891428  CLST      20              1.0000000000
       101        21  DCM       C               0.4582664263        0.4086997682       -2.3225327294  CLST      21              1.0000000000
       102        21  DCM       H1              0.5610656108       -0.5073127048       -2.9412001855  CLST      21              1.0000000000
       103        21  DCM       H2              0.3991281632        1.3161305833       -2.9606496593  CLST      21              1.0000000000
       104        21  DCM       CL1            -1.0296970231        0.2801692636       -1.3448248816  CLST      21              1.0000000000
       105        21  DCM       CL2             1.8763273327        0.5433847777       -1.2463165284  CLST      21              1.0000000000
       106        22  DCM       C              -2.0744747425       -1.3476871804       -2.5432822094  CLST      22              1.0000000000
       107        22  DCM       H1             -1.0612675125       -0.9784107646       -2.2851441695  CLST      22              1.0000000000
       108        22  DCM       H2             -2.4499119706       -2.0489779641       -1.7705865393  CLST      22              1.0000000000
       109        22  DCM       CL1            -3.1873190031        0.0484115808       -2.6548358665  CLST      22              1.0000000000
       110        22  DCM       CL2            -1.9995379490       -2.1986954535       -4.1139127421  CLST      22              1.0000000000
       111        23  DCM       C              -1.4966964061        0.4248268227        2.0511757514  CLST      23              1.0000000000
       112        23  DCM       H1             -0.9929231889       -0.4814618215        2.4472272512  CLST      23              1.0000000000
       113        23  DCM       H2             -0.7633415574        1.2387408667        1.8733996054  CLST      23              1.0000000000
       114        23  DCM       CL1            -2.7082672255        0.9827669605        3.2384581161  CLST      23              1.0000000000
       115        23  DCM       CL2            -2.3080553020        0.0203175812        0.5109287173  CLST      23              1.0000000000
       116        24  DCM       C              -0.9572887287        1.3739272743       -0.3076752889  CLST      24              1.0000000000
       117        24  DCM       H1             -1.2177749933        2.0059310120       -1.1839680203  CLST      24              1.0000000000
       118        24  DCM       H2             -0.8582512447        1.9877587591        0.6108157380  CLST      24              1.0000000000
       119        24  DCM       CL1            -2.2499034733        0.1662927529       -0.0652135685  CLST      24              1.0000000000
       120        24  DCM       CL2             0.5939212504        0.5517606083       -0.6288538369  CLST      24              1.0000000000
       121        25  DCM       C              -1.8736983946        2.2683539720       -1.7244898441  CLST      25              1.0000000000
       122        25  DCM       H1             -1.8073382494        3.3350344855       -1.4233253602  CLST      25              1.0000000000
       123        25  DCM       H2             -0.8742326403        1.7875510397       -1.7168237563  CLST      25              1.0000000000
       124        25  DCM       CL1            -2.9425240439        1.4011367764       -0.5836757559  CLST      25              1.0000000000
       125        25  DCM       CL2            -2.5547393638        2.1687558859       -3.3730039680  CLST      25              1.0000000000
       126        26  DCM       C              -2.8606619869       -1.5241806276        0.9677683256  CLST      26              1.0000000000
       127        26  DCM       H1             -2.1909001163       -0.6410731755        0.9204891382  CLST      26              1.0000000000
       128        26  DCM       H2             -3.4348702318       -1.5357667605        1.9175392271  CLST      26              1.0000000000
       129        26  DCM       CL1            -4.0044845638       -1.4641663195       -0.4054351627  CLST      26              1.0000000000
       130        26  DCM       CL2            -1.8756871589       -3.0125292099        0.8724748310  CLST      26              1.0000000000
       131        27  DCM       C              -0.7254141045        1.9542800099        1.1040783731  CLST      27              1.0000000000
       132        27  DCM       H1              0.3748484371        1.8055365013        1.1363991448  CLST      27              1.0000000000
       133        27  DCM       H2             -0.9827498913        3.0341524290        1.0619301863  CLST      27              1.0000000000
       134        27  DCM       CL1            -1.3771815481        1.1419263015       -0.3485683481  CLST      27              1.0000000000
       135        27  DCM       CL2            -1.4503905951        1.2400667169        2.5735145628  CLST      27              1.0000000000
       136        28  DCM       C               1.2193617213       -0.0087737895       -1.6848187785  CLST      28              1.0000000000
       137        28  DCM       H1              1.6610933364        1.0082386793       -1.6018721137  CLST      28              1.0000000000
       138        28  DCM       H2              0.5459152601       -0.0737113689       -2.5661742248  CLST      28              1.0000000000
       139        28  DCM       CL1             2.5375509795       -1.1983187541       -1.8661308938  CLST      28              1.0000000000
       140        28  DCM       CL2             0.2807282547       -0.3621223283       -0.2077031803  CLST      28              1.0000000000
       141        29  DCM       C               2.7426200505       -0.0317046814        0.8402303372  CLST      29              1.0000000000
       142        29  DCM       H1              3.2367356120       -0.0157744738       -0.1554972819  CLST      29              1.0000000000
       143        29  DCM       H2              3.0220018877       -0.9422799221        1.4095791012  CLST      29              1.0000000000
       144        29  DCM       CL1             3.2465797432        1.4070000587        1.7697252736  CLST      29              1.0000000000
       145        29  DCM       CL2             0.9706085302       -0.0209316541        0.6077331230  CLST      29              1.0000000000
       146        30  DCM       C              -3.7523423947        1.5276563928       -0.8365356956  CLST      30              1.0000000000
       147        30  DCM       H1             -3.9102806935        1.0396206804       -1.8207202799  CLST      30              1.0000000000
       148        30  DCM       H2             -4.5950333094        2.2058868816       -0.5867757222  CLST      30              1.0000000000
       149        30  DCM       CL1            -3.6308874958        0.2660521006        0.4216815416  CLST      30              1.0000000000
       150        30  DCM       CL2            -2.2383356430        2.4751823663       -0.8890387911  CLST      30              1.0000000000
       151        31  DCM       C               1.3535204646        1.3677347427        2.2813789825  CLST      31              1.0000000000
       152        31  DCM       H1              1.8047773547        0.9416260310        3.2018418459  CLST      31              1.0000000000
       153        31  DCM       H2              0.2580776237        1.1878258609        2.2552286262  CLST      31              1.0000000000
       154        31  DCM       CL1             1.6571108800        3.1285413675        2.2494141897  CLST      31              1.0000000000
       155        31  DCM       CL2             2.1038992292        0.5990435757        0.8520419326  CLST      31              1.0000000000
       156        32  DCM       C               0.3934876452        2.8191219334       -0.5520855285  CLST      32              1.0000000000
       157        32  DCM       H1              0.8851417046        1.8446395245       -0.3473856580  CLST      32              1.0000000000
       158        32  DCM       H2              0.6917972755        3.2157317334       -1.5460094932  CLST      32              1.0000000000
       159        32  DCM       CL1            -1.3800943670        2.5932192867       -0.5254299822  CLST      32              1.0000000000
       160        32  DCM       CL2             0.8774385053        3.9894879152        0.7096304990  CLST      32              1.0000000000
       161        33  DCM       C              -1.0245882656       -2.8654979985        1.3437371656  CLST      33              1.0000000000
       162        33  DCM       H1             -1.2737430222       -2.4172796161        0.3588774744  CLST      33              1.0000000000
       163        33  DCM       H2             -0.2809662566       -3.6828501473        1.2307853562  CLST      33              1.0000000000
       164        33  DCM       CL1            -0.3440891752       -1.5970165051        2.4041861558  CLST      33              1.0000000000
       165        33  DCM       CL2            -2.5156654761       -3.5267808925        2.0749536785  CLST      33              1.0000000000
       166        34  DCM       C              -0.3953730508        2.8113872895        1.6157066323  CLST      34              1.0000000000
       167        34  DCM       H1              0.2277411887        2.7825965115        0.6966858833  CLST      34              1.0000000000
       168        34  DCM       H2             -0.0347871070        3.5932483100        2.3175200730  CLST      34              1.0000000000
       169        34  DCM       CL1            -2.0844564300        3.1772226338        1.1611867127  CLST      34              1.0000000000
       170        34  DCM       CL2            -0.3156380022        1.2188375761        2.4243682758  CLST      34              1.0000000000
       171        35  DCM       C               2.6093230799        0.5898989836        0.3116011680  CLST      35              1.0000000000
       172        35  DCM       H1              3.2901766437        0.3648446225       -0.5347595056  CLST      35              1.0000000000
       173        35  DCM       H2              1.5598718906        0.6854641264       -0.0363715385  CLST      35              1.0000000000
       174        35  DCM       CL1             2.7129560661       -0.7345559795        1.5014138574  CLST      35              1.0000000000
       175        35  DCM       CL2             3.1195158080        2.1236353391        1.0698115050  CLST      35              1.0000000000
       176        36  DCM       C               2.2678074046        2.1715476135       -2.3130563105  CLST      36              1.0000000000
       177        36  DCM       H1              2.9059230265        2.7566578615       -3.0072649542  CLST      36              1.0000000000
       178        36  DCM       H2              1.7243271677        2.8405624084       -1.6130138554  CLST      36              1.0000000000
       179        36  DCM       CL1             1.0801345097        1.2353386278       -3.2662137482  CLST      36              1.0000000000
       180        36  DCM       CL2             3.3071437296        1.0593805603       -1.3760334397  CLST      36              1.0000000000
       181        37  DCM       C              -1.8960245032       -2.2619167305        0.2252091783  CLST      37              1.0000000000
       182        37  DCM       H1             -0.9146852273       -2.6842134091       -0.0789158621  CLST      37              1.0000000000
       183        37  DCM       H2             -1.9807582391       -2.2080226290        1.3320579458  CLST      37              1.0000000000
       184        37  DCM       CL1            -2.0454776936       -0.6152885509       -0.4518170455  CLST      37              1.0000000000
       185        37  DCM       CL2            -3.2004049181       -3.3051417093       -0.4099713905  CLST      37              1.0000000000
       186        38  DCM       C              -1.3234869470        2.6818011744       -2.1408534333  CLST      38              1.0000000000
       187        38  DCM       H1             -1.5701243465        3.7337876127       -1.8877278868  CLST      38              1.0000000000
       188        38  DCM       H2             -0.2346846001        2.4928666494       -2.0359480499  CLST      38              1.0000000000
       189        38  DCM       CL1            -2.2124487472        1.5876644408       -1.0431008285  CLST      38              1.0000000000
       190        38  DCM       CL2            -1.8056140317        2.3695306693       -3.8295231245  CLST      38              1.0000000000
       191        39  DCM       C               2.0785859221       -1.3876228511        3.2796546088  CLST      39              1.0000000000
       192        39  DCM       H1              2.9239563870       -0.8092528818        2.8505724887  CLST      39              1.0000000000
       193        39  DCM       H2              2.3884649540       -2.4263585543        3.5192369892  CLST      39              1.0000000000
       194        39  DCM       CL1             1.5292602007       -0.5828101189        4.7771962739  CLST      39              1.0000000000
       195        39  DCM       CL2             0.7452177661       -1.4321331179        2.0933402204  CLST      39              1.0000000000
       196        40  DCM       C              -0.2718797543        1.3588205535        1.5395366923  CLST      40              1.0000000000
       197        40  DCM       H1             -1.1549720034        1.7246861524        2.1005869184  CLST      40              1.0000000000
       198        40  DCM       H2              0.6697382019        1.5607313542        2.0942653925  CLST      40              1.0000000000
       199        40  DCM       CL1            -0.4326590551       -0.4030523615        1.2887779301  CLST      40              1.0000000000
       200        40  DCM       CL2            -0.2027929771        2.1946658215       -0.0378790716  CLST      40              1.0000000000
       201        41  DCM       C               1.7577433162       -0.7399663323       -3.2255125501  CLST      41              1.0000000000
       202        41  DCM       H1              2.2144615936       -1.7514345207       -3.2474476541  CLST      41              1.0000000000
       203        41  DCM       H2              0.7721819529       -0.7565632692       -2.7143832631  CLST      41              1.0000000000
       204        41  DCM       CL1             2.8468598963        0.3688207430       -2.3438872409  CLST      41              1.0000000000
       205        41  DCM       CL2             1.5357016691       -0.1620924406       -4.9022526630  CLST      41              1.0000000000
       206        42  DCM       C              -2.1663345230        0.7451604378        0.9516119077  CLST      42              1.0000000000
       207        42  DCM       H1             -1.2718718906        0.9594198050        1.5730150400  CLST      42              1.0000000000
       208        42  DCM       H2             -1.9139039114        0.7585381094       -0.1296753600  CLST      42              1.0000000000
       209        42  DCM       CL1            -2.7940927453       -0.8701800457        1.3873684076  CLST      42              1.0000000000
       210        42  DCM       CL2            -3.4115790397        1.9867174035        1.2757453411  CLST      42              1.0000000000
       211        43  DCM       C              -1.6769730352       -0.8568292055       -0.6279920540  CLST      43              1.0000000000
       212        43  DCM       H1             -1.0508409049        0.0248850271       -0.3745243670  CLST      43              1.0000000000
       213        43  DCM       H2             -2.7183637694       -0.5524747203       -0.8644084690  CLST      43              1.0000000000
       214        43  DCM       CL1            -0.9741151590       -1.6783690083       -2.0514177774  CLST      43              1.0000000000
       215        43  DCM       CL2            -1.7025289570       -1.9752616005        0.7661196730  CLST      43              1.0000000000
       216        44  DCM       C              -1.3490935418       -2.7438082464        1.0106387887  CLST      44              1.0000000000
       217        44  DCM       H1             -0.4090074909       -3.1809317339        1.4110587820  CLST      44              1.0000000000
       218        44  DCM       H2             -1.4755413058       -1.6952028851        1.3559717827  CLST      44              1.0000000000
       219        44  DCM       CL1            -1.2848818262       -2.7649004064       -0.7730966010  CLST      44              1.0000000000
       220        44  DCM       CL2            -2.7366437105       -3.7195052085        1.5733075376  CLST      44              1.0000000000
       221        45  DCM       C               2.3349330744       -1.4607743852        1.7931593612  CLST      45              1.0000000000
       222        45  DCM       H1              3.1482717756       -1.8191176010        1.1270407503  CLST      45              1.0000000000
       223        45  DCM       H2              1.5768875979       -0.8844214502        1.2233078697  CLST      45              1.0000000000
       224        45  DCM       CL1             1.5408873395       -2.8725049329        2.5497084377  CLST      45              1.0000000000
       225        45  DCM       CL2             3.0345728928       -0.4064793917        3.0568896724  CLST      45              1.0000000000
       226        46  DCM       C              -0.5722775115       -2.6028485873        2.7179040474  CLST      46              1.0000000000
       227        46  DCM       H1             -1.3184124927       -1.8107792250        2.4931975230  CLST      46              1.0000000000
       228        46  DCM       H2             -0.2119690860       -3.0837713302        1.7846865239  CLST      46              1.0000000000
       229        46  DCM       CL1             0.8119895689       -1.8684465765        3.5759635546  CLST      46              1.0000000000
       230        46  DCM       CL2            -1.3326046388       -3.8395322638        3.7572854432  CLST      46              1.0000000000
       231        47  DCM       C              -0.8438546865       -1.8781334835       -0.6101242945  CLST      47              1.0000000000
       232        47  DCM       H1             -1.5784582966       -1.8077662152        0.2204483270  CLST      47              1.0000000000
       233        47  DCM       H2             -1.1344476204       -2.6714260763       -1.3321431597  CLST      47              1.0000000000
       234        47  DCM       CL1            -0.7775587917       -0.3098091800       -1.4623739083  CLST      47              1.0000000000
       235        47  DCM       CL2             0.7608105598       -2.2699691029        0.0687045047  CLST      47              1.0000000000
       236        48  DCM       C              -1.3522519159       -1.1268803081       -2.6515097488  CLST      48              1.0000000000
       237        48  DCM       H1             -1.8512559661       -1.8687732971       -1.9934561613  CLST      48              1.0000000000
       238        48  DCM       H2             -0.8145082788       -1.6285185726       -3.4848511885  CLST      48              1.0000000000
       239        48  DCM       CL1            -2.5871856081       -0.0294004565       -3.3331641771  CLST      48              1.0000000000
       240        48  DCM       CL2            -0.1805098833       -0.1922377683       -1.6810433664  CLST      48              1.0000000000
       241        49  DCM       C              -0.4947270401       -0.7579270018       -0.6245657500  CLST      49              1.0000000000
       242        49  DCM       H1             -1.4209778944       -0.3091691529       -1.0415217255  CLST      49              1.0000000000
       243        49  DCM       H2              0.1699885677       -1.1171700720       -1.4386293419  CLST      49              1.0000000000
       244        49  DCM       CL1             0.3709771809        0.4697250179        0.3429445075  CLST      49              1.0000000000
       245        49  DCM       CL2            -0.9346101360       -2.1389955441        0.4147158040  CLST      49              1.0000000000
       246        50  DCM       C              -2.7017867869       -1.8615660957       -1.5978784600  CLST      50              1.0000000000
       247        50  DCM       H1             -2.4182970895       -1.9067860127       -0.5244718990  CLST      50              1.0000000000
       248        50  DCM       H2             -2.1226018601       -1.0812016015       -2.1259307590  CLST      50              1.0000000000
       249        50  DCM       CL1            -2.3714380084       -3.4529332563       -2.3487852894  CLST      50              1.0000000000
       250        50  DCM       CL2            -4.4444102013       -1.4767665698       -1.7229878339  CLST      50              1.0000000000
       251        51  DCM       C              -1.2278370474        0.7638485962       -1.3353409652  CLST      51              1.0000000000
       252        51  DCM       H1             -0.8375677808        1.7547190911       -1.0205506585  CLST      51              1.0000000000
       253        51  DCM       H2             -2.3186353400        0.6862234688       -1.1421981489  CLST      51              1.0000000000
       254        51  DCM       CL1            -0.9327477036        0.5525574344       -3.0855948319  CLST      51              1.0000000000
       255        51  DCM       CL2            -0.3802720472       -0.5153107962       -0.4181626685  CLST      51              1.0000000000
       256        52  DCM       C              -2.5950542068       -2.7333605121        1.0407833777  CLST      52              1.0000000000
       257        52  DCM       H1             -3.4114249746       -2.2813714965        1.6464601041  CLST      52              1.0000000000
       258        52  DCM       H2             -1.9340402495       -3.3626904949        1.6724715258  CLST      52              1.0000000000
       259        52  DCM       CL1            -1.6265717040       -1.4247800907        0.3080384469  CLST      52              1.0000000000
       260        52  DCM       CL2            -3.3178923642       -3.7449501943       -0.2439883365  CLST      52              1.0000000000
       261        53  DCM       C              -0.3899096630        0.4643241873       -1.8474503993  CLST      53              1.0000000000
       262        53  DCM       H1             -0.9608859623        1.3693424325       -2.1386108190  CLST      53              1.0000000000
       263        53  DCM       H2             -0.9526418486       -0.4587777174       -2.1010000805  CLST      53              1.0000000000
       264        53  DCM       CL1             1.1774392081        0.4616839404       -2.7068432928  CLST      53              1.0000000000
       265        53  DCM       CL2            -0.1121110647        0.5161208316       -0.0849292487  CLST      53              1.0000000000
       266        54  DCM       C              -0.6902470356        1.4784554273       -2.4695543981  CLST      54              1.0000000000
       267        54  DCM       H1             -0.2199321159        2.4822251977       -2.5326325695  CLST      54              1.0000000000
       268        54  DCM       H2             -1.7940012385        1.5596466925       -2.3759384464  CLST      54              1.0000000000
       269        54  DCM       CL1            -0.0486869831        0.6295308028       -1.0343159021  CLST      54              1.0000000000
       270        54  DCM       CL2            -0.2967933345        0.5518688173       -3.9483314094  CLST      54              1.0000000000
       271        55  DCM       C               0.5259485391       -3.0038164465       -0.5593536477  CLST      55              1.0000000000
       272        55  DCM       H1              0.4317626761       -3.1345917152        0.5382259230  CLST      55              1.0000000000
       273        55  DCM       H2              0.3764065552       -3.9669880363       -1.0918654276  CLST      55              1.0000000000
       274        55  DCM       CL1            -0.7109280390       -1.8370228533       -1.1132243469  CLST      55              1.0000000000
       275        55  DCM       CL2             2.1592893282       -2.3834956944       -0.9424120452  CLST      55              1.0000000000
       276        56  DCM       C               3.9044915454       -0.2682893081       -0.5885824537  CLST      56              1.0000000000
       277        56  DCM       H1              4.8104466955        0.1899464193       -0.1405655306  CLST      56              1.0000000000
       278        56  DCM       H2              3.7878277830        0.0376993704       -1.6498544175  CLST      56              1.0000000000
       279        56  DCM       CL1             4.0558908136       -2.0475361054       -0.5102187443  CLST      56              1.0000000000
       280        56  DCM       CL2             2.4670806273        0.2626790952        0.3324631606  CLST      56              1.0000000000
       281        57  DCM       C              -2.2325235287        1.1191273162        0.1242444844  CLST      57              1.0000000000
       282        57  DCM       H1             -3.0834131082        0.4070733488        0.0742420659  CLST      57              1.0000000000
       283        57  DCM       H2             -1.2757864512        0.6153721454       -0.1311632695  CLST      57              1.0000000000
       284        57  DCM       CL1            -2.5149573720        2.4446947082       -1.0404804068  CLST      57              1.0000000000
       285        57  DCM       CL2            -2.1237241860        1.7776043795        1.7826668733  CLST      57              1.0000000000
       286        58  DCM       C               3.3392846559       -2.8931855323        0.6413505706  CLST      58              1.0000000000
       287        58  DCM       H1              3.1427936559       -3.9846614010        0.7261724743  CLST      58              1.0000000000
       288        58  DCM       H2              4.1224004727       -2.5725031371        1.3602019943  CLST      58              1.0000000000
       289        58  DCM       CL1             1.8301669951       -2.0047793172        0.9910433246  CLST      58              1.0000000000
       290        58  DCM       CL2             3.8859622995       -2.5246467399       -1.0194112828  CLST      58              1.0000000000
       291        59  DCM       C               0.6099703387        2.2843090608        2.6439314943  CLST      59              1.0000000000
       292        59  DCM       H1              1.0537732265        1.3183581634        2.9671639220  CLST      59              1.0000000000
       293        59  DCM       H2             -0.1756235014        2.1245033830        1.8723951136  CLST      59              1.0000000000
       294        59  DCM       CL1             1.9000145432        3.3134974790        1.9637104549  CLST      59              1.0000000000
       295        59  DCM       CL2            -0.1153786434        3.0864837310        4.0618617263  CLST      59              1.0000000000
       296        60  DCM       C              -1.4161842364       -2.6929051924       -1.7796366649  CLST      60              1.0000000000
       297        60  DCM       H1             -0.5841976939       -2.1064715574       -1.3368522545  CLST      60              1.0000000000
       298        60  DCM       H2             -1.1276490461       -3.7554163294       -1.9134024759  CLST      60              1.0000000000
       299        60  DCM       CL1            -1.8354735476       -2.0058120451       -3.3725784243  CLST      60              1.0000000000
       300        60  DCM       CL2            -2.8294053702       -2.6123192124       -0.6927661134  CLST      60              1.0000000000
       301        61  DCM       C              -1.7583832763       -0.7643392863        3.1450099398  CLST      61              1.0000000000
       302        61  DCM       H1             -1.0058772035       -0.3965883272        3.8733935314  CLST      61              1.0000000000
       303        61  DCM       H2             -1.5477887644       -1.8150938412        2.8553137377  CLST      61              1.0000000000
       304        61  DCM       CL1            -3.3801007155       -0.6805952117        3.8870711435  CLST      61              1.0000000000
       305        61  DCM       CL2            -1.7136590724        0.2682412600        1.6866488081  CLST      61              1.0000000000
       306        62  DCM       C               1.8306011840       -2.9789560793        1.1407223926  CLST      62              1.0000000000
       307        62  DCM       H1              0.7888492621       -3.1918037602        1.4596932846  CLST      62              1.0000000000
       308        62  DCM       H2              1.8558009456       -2.5674675547        0.1102922405  CLST      62              1.0000000000
       309        62  DCM       CL1             2.5494526862       -1.7832443781        2.2580460816  CLST      62              1.0000000000
       310        62  DCM       CL2             2.7758550539       -4.4962915293        1.1834598584  CLST      62              1.0000000000
       311        63  DCM       C              -3.4286249319       -0.8091028568       -0.1197587869  CLST      63              1.0000000000
       312        63  DCM       H1             -3.3289799662       -0.2658580305        0.8452730676  CLST      63              1.0000000000
       313        63  DCM       H2             -4.3767830788       -0.5439868074       -0.6298913331  CLST      63              1.0000000000
       314        63  DCM       CL1            -2.0534472483       -0.3769867725       -1.1771699505  CLST      63              1.0000000000
       315        63  DCM       CL2            -3.4145224555       -2.5670454432        0.2021314720  CLST      63              1.0000000000
       316        64  DCM       C               0.8590872601       -1.6147276519        0.1251337765  CLST      64              1.0000000000
       317        64  DCM       H1              0.5126663348       -2.1969013493        1.0057067068  CLST      64              1.0000000000
       318        64  DCM       H2              1.9613210826       -1.6968753251        0.0040984984  CLST      64              1.0000000000
       319        64  DCM       CL1             0.4334181374        0.1048892092        0.3660075665  CLST      64              1.0000000000
       320        64  DCM       CL2             0.0655534703       -2.2418069189       -1.3457278958  CLST      64              1.0000000000
       321        65  DCM       C              -0.5832102521       -0.1342427987        2.4147428447  CLST      65              1.0000000000
       322        65  DCM       H1             -0.8479321286       -0.7746760661        1.5469985740  CLST      65              1.0000000000
       323        65  DCM       H2             -0.4151886938       -0.7464928255        3.3265969662  CLST      65              1.0000000000
       324        65  DCM       CL1             0.9116428904        0.7674125495        2.0400713028  CLST      65              1.0000000000
       325        65  DCM       CL2            -1.9168038804        1.0093279595        2.7308883126  CLST      65              1.0000000000
       326        66  DCM       C              -2.2504065152       -0.6103876677       -2.5343816537  CLST      66              1.0000000000
       327        66  DCM       H1             -2.7228081305       -1.5500071295       -2.1778624760  CLST      66              1.0000000000
       328        66  DCM       H2             -1.4689378500       -0.2614501479       -1.8284574841  CLST      66              1.0000000000
       329        66  DCM       CL1            -1.4979131212       -0.8979191487       -4.1288592204  CLST      66              1.0000000000
       330        66  DCM       CL2            -3.5053200415        0.6518600660       -2.6772973486  CLST      66              1.0000000000
       331        67  DCM       C              -1.7774346980        2.0369223301        2.4636400473  CLST      67              1.0000000000
       332        67  DCM       H1             -2.5185424655        2.5942680581        3.0713487187  CLST      67              1.0000000000
       333        67  DCM       H2             -1.5025867549        1.0762719204        2.9483324849  CLST      67              1.0000000000
       334        67  DCM       CL1            -2.4748781327        1.6957651095        0.8520730237  CLST      67              1.0000000000
       335        67  DCM       CL2            -0.3050121291        3.0353450468        2.2856395854  CLST      67              1.0000000000
       336        68  DCM       C               0.8134463036       -3.4995260281       -2.7225852098  CLST      68              1.0000000000
       337        68  DCM       H1              1.8364653603       -3.6822363579       -3.1127842054  CLST      68              1.0000000000
       338        68  DCM       H2              0.0675630759       -4.1273582474       -3.2535646532  CLST      68              1.0000000000
       339        68  DCM       CL1             0.7838773356       -3.9049027816       -0.9872719567  CLST      68              1.0000000000
       340        68  DCM       CL2             0.4004088828       -1.7774673568       -2.9511026695  CLST      68              1.0000000000
       341        69  DCM       C               0.6158445480       -2.3750193659        1.3886727522  CLST      69              1.0000000000
       342        69  DCM       H1              1.2014783161       -1.7849647394        2.1236055806  CLST      69              1.0000000000
       343        69  DCM       H2             -0.4710105638       -2.2172108334        1.5457072185  CLST      69              1.0000000000
       344        69  DCM       CL1             0.9994671656       -4.1081478011        1.5835903343  CLST      69              1.0000000000
       345        69  DCM       CL2             1.0478143321       -1.8482082827       -0.2598593509  CLST      69              1.0000000000
       346        70  DCM       C               2.5199552961       -0.7353758472       -2.6058220366  CLST      70              1.0000000000
       347        70  DCM       H1              1.8193960623       -1.4619098468       -2.1519574948  CLST      70              1.0000000000
       348        70  DCM       H2              2.0691981850       -0.2318408378       -3.4843467528  CLST      70              1.0000000000
       349        70  DCM       CL1             2.9484732616        0.4929341003       -1.3760222639  CLST      70              1.0000000000
       350        70  DCM       CL2             3.9967155368       -1.6083589615       -3.1158953913  CLST      70              1.0000000000
       351        71  DCM       C               2.7082473324       -2.5605423856       -1.1246278129  CLST      71              1.0000000000
       352        71  DCM       H1              3.5317119557       -2.2316673698       -0.4562079222  CLST      71              1.0000000000
       353        71  DCM       H2              1.7193373867       -2.4197580457       -0.6397167775  CLST      71              1.0000000000
       354        71  DCM       CL1             2.9314183866       -4.2919752162       -1.5053519136  CLST      71              1.0000000000
       355        71  DCM       CL2             2.7531388742       -1.5947854505       -2.6264342492  CLST      71              1.0000000000
       356        72  DCM       C              -1.9999781908        3.7350212376       -1.1026571286  CLST      72              1.0000000000
       357        72  DCM       H1             -1.3856271762        4.6232042867       -1.3655727510  CLST      72              1.0000000000
       358        72  DCM       H2             -1.5662542772        2.8082778223       -1.5378917482  CLST      72              1.0000000000
       359        72  DCM       CL1            -2.0648304399        3.5618571830        0.6741306606  CLST      72              1.0000000000
       360        72  DCM       CL2            -3.6505344563        3.9558107817       -1.7433271331  CLST      72              1.0000000000
       361        73  DCM       C               0.0327653351       -0.8054819043        1.6416532009  CLST      73              1.0000000000
       362        73  DCM       H1              0.1702405282        0.2948528854        1.6954837382  CLST      73              1.0000000000
       363        73  DCM       H2              0.6105454504       -1.2380931806        0.7975127434  CLST      73              1.0000000000
       364        73  DCM       CL1             0.5897814983       -1.5380170879        3.1744874653  CLST      73              1.0000000000
       365        73  DCM       CL2            -1.6999099641       -1.1633646570        1.3995713264  CLST      73              1.0000000000
       366        74  DCM       C               2.5628540694        1.3509851302       -1.6390580270  CLST      74              1.0000000000
       367        74  DCM       H1              3.3566531846        2.0861350153       -1.3840674638  CLST      74              1.0000000000
       368        74  DCM       H2              2.7700983875        0.3653219818       -1.1734477350  CLST      74              1.0000000000
       369        74  DCM       CL1             0.9945989852        1.9612219460       -1.0423503819  CLST      74              1.0000000000
       370        74  DCM       CL2             2.4987733068        1.1561462094       -3.4128740398  CLST      74              1.0000000000
       371        75  DCM       C               1.4387130227        1.2474067527        1.2852253379  CLST      75              1.0000000000
       372        75  DCM       H1              2.2089730611        1.2198227915        2.0883304870  CLST      75              1.0000000000
       373        75  DCM       H2              1.6786303078        0.5277872611        0.4761717675  CLST      75              1.0000000000
       374        75  DCM       CL1            -0.1477280831        0.8249326134        1.9898364341  CLST      75              1.0000000000
       375        75  DCM       CL2             1.3744101987        2.8959228493        0.5979086245  CLST      75              1.0000000000
       376        76  DCM       C              -1.1113873647        0.3663781417        1.0639047208  CLST      76              1.0000000000
       377        76  DCM       H1             -0.1772241637       -0.1822259519        0.8260889601  CLST      76              1.0000000000
       378        76  DCM       H2             -2.0009330715       -0.2788919525        0.9045092125  CLST      76              1.0000000000
       379        76  DCM       CL1            -1.2384320272        1.7985216572        0.0063386925  CLST      76              1.0000000000
       380        76  DCM       CL2            -1.0595545123        0.8780515025        2.7744317402  CLST      76              1.0000000000
       381        77  DCM       C               2.4446526426        1.1910972026        2.9767901874  CLST      77              1.0000000000
       382        77  DCM       H1              1.8659536489        2.0732279495        2.6299382858  CLST      77              1.0000000000
       383        77  DCM       H2              3.1376077032        0.8313743801        2.1867312036  CLST      77              1.0000000000
       384        77  DCM       CL1             3.3946559272        1.6499597161        4.4189654675  CLST      77              1.0000000000
       385        77  DCM       CL2             1.3045053645       -0.1220801686        3.3934318144  CLST      77              1.0000000000
       386        78  DCM       C               2.7776678820        2.8231577839       -0.0356848757  CLST      78              1.0000000000
       387        78  DCM       H1              3.1824642598        1.7910803148       -0.0922242701  CLST      78              1.0000000000
       388        78  DCM       H2              2.5622473632        3.1123121136        1.0143805489  CLST      78              1.0000000000
       389        78  DCM       CL1             3.9775219331        3.9593845813       -0.7188608529  CLST      78              1.0000000000
       390        78  DCM       CL2             1.2637839921        2.9044298766       -0.9805614538  CLST      78              1.0000000000
       391        79  DCM       C              -0.5444632627       -0.1526365693       -3.1380933031  CLST      79              1.0000000000
       392        79  DCM       H1             -0.4590748825       -1.2396691693       -2.9274586733  CLST      79              1.0000000000
       393        79  DCM       H2              0.4548814383        0.3320076467       -3.1532619136  CLST      79              1.0000000000
       394        79  DCM       CL1            -1.3234994109        0.0715441360       -4.7318183230  CLST      79              1.0000000000
       395        79  DCM       CL2            -1.5405917283        0.6099745029       -1.8640945235  CLST      79              1.0000000000
       396        80  DCM       C              -2.7964329579        0.2191266070        1.6912453580  CLST      80              1.0000000000
       397        80  DCM       H1             -1.8186200359        0.7401516383        1.7632413633  CLST      80              1.0000000000
       398        80  DCM       H2             -2.8498783664       -0.4036027311        0.7734278656  CLST      80              1.0000000000
       399        80  DCM       CL1            -2.9971205723       -0.8328936752        3.1194256433  CLST      80              1.0000000000
       400        80  DCM       CL2            -4.1063802270        1.4344957619        1.6507678550  CLST      80              1.0000000000
       401        81  DCM       C              -1.9827360632        2.3797893926       -2.7247601618  CLST      81              1.0000000000
       402        81  DCM       H1             -2.5980954660        1.6146571856       -3.2424847928  CLST      81              1.0000000000
       403        81  DCM       H2             -1.0568614247        1.9269910445       -2.3116042798  CLST      81              1.0000000000
       404        81  DCM       CL1            -1.5373651890        3.6592177738       -3.8902680807  CLST      81              1.0000000000
       405        81  DCM       CL2            -2.9367290842        3.0877871743       -1.3899865853  CLST      81              1.0000000000
       406        82  DCM       C               2.8305841519        0.1522553510        2.4773766605  CLST      82              1.0000000000
       407        82  DCM       H1              2.1470131577       -0.7098199843        2.3377502667  CLST      82              1.0000000000
       408        82  DCM       H2              2.7526981042        0.8686494363        1.6334900019  CLST      82              1.0000000000
       409        82  DCM       CL1             2.4006711736        0.9903716974        3.9980830951  CLST      82              1.0000000000
       410        82  DCM       CL2             4.5108164698       -0.4528190556        2.5748151249  CLST      82              1.0000000000
       411        83  DCM       C              -1.3921304628        2.2843171582        2.0579839346  CLST      83              1.0000000000
       412        83  DCM       H1             -2.2229617218        2.6951378944        1.4478688628  CLST      83              1.0000000000
       413        83  DCM       H2             -1.5173373357        1.1918441764        2.2154914809  CLST      83              1.0000000000
       414        83  DCM       CL1             0.1480819061        2.5757650490        1.2080663426  CLST      83              1.0000000000
       415        83  DCM       CL2            -1.3631981122        3.1061334537        3.6440593709  CLST      83              1.0000000000
       416        84  DCM       C               2.9965642980       -3.2394269465       -2.4735863259  CLST      84              1.0000000000
       417        84  DCM       H1              3.2618712776       -4.3165324412       -2.4169709502  CLST      84              1.0000000000
       418        84  DCM       H2              3.8911285920       -2.6189590375       -2.6848005920  CLST      84              1.0000000000
       419        84  DCM       CL1             1.8027932029       -3.0009486503       -3.7823615285  CLST      84              1.0000000000
       420        84  DCM       CL2             2.2887297074       -2.7326795004       -0.9124276174  CLST      84              1.0000000000
       421        85  DCM       C              -0.8527196811        1.7006518886       -2.9237285818  CLST      85              1.0000000000
       422        85  DCM       H1             -0.5914953680        1.2386839572       -1.9471224614  CLST      85              1.0000000000
       423        85  DCM       H2              0.0444643295        2.1376357937       -3.4100914165  CLST      85              1.0000000000
       424        85  DCM       CL1            -2.0587784170        2.9904217358       -2.6564751575  CLST      85              1.0000000000
       425        85  DCM       CL2            -1.5388868288        0.4469670156       -3.9905035223  CLST      85              1.0000000000
       426        86  DCM       C              -2.4606040545        0.9299672531       -1.8640456303  CLST      86              1.0000000000
       427        86  DCM       H1             -2.7238927280        2.0055914041       -1.9499822549  CLST      86              1.0000000000
       428        86  DCM       H2             -2.5279899641        0.5825360736       -0.8116011486  CLST      86              1.0000000000
       429        86  DCM       CL1            -3.5932094206       -0.0259295788       -2.8618436704  CLST      86              1.0000000000
       430        86  DCM       CL2            -0.7885831965        0.6939928820       -2.4498705671  CLST      86              1.0000000000
       431        87  DCM       C               0.1099122767        1.4028721405        0.7522742481  CLST      87              1.0000000000
       432        87  DCM       H1              0.6813881307        2.3180921608        0.4909631433  CLST      87              1.0000000000
       433        87  DCM       H2              0.6016653340        0.8508655560        1.5813428486  CLST      87              1.0000000000
       434        87  DCM       CL1            -1.5367161861        1.8742236732        1.2602698727  CLST      87              1.0000000000
       435        87  DCM       CL2             0.0189191109        0.3411662301       -0.6812910762  CLST      87              1.0000000000
       436        88  DCM       C              -0.6586677165       -1.3975530233       -1.1375325841  CLST      88              1.0000000000
       437        88  DCM       H1             -0.2849448793       -0.8465517625       -2.0241157363  CLST      88              1.0000000000
       438        88  DCM       H2             -0.0713633090       -1.1301511594       -0.2348598136  CLST      88              1.0000000000
       439        88  DCM       CL1            -2.3728564851       -0.9679170708       -0.8758843262  CLST      88              1.0000000000
       440        88  DCM       CL2            -0.5106067746       -3.1541663486       -1.4304433104  CLST      88              1.0000000000
       441        89  DCM       C               1.8193270305       -2.0194349312       -0.4891043160  CLST      89              1.0000000000
       442        89  DCM       H1              0.8212836857       -1.5355372544       -0.4673644021  CLST      89              1.0000000000
       443        89  DCM       H2              2.5973369039       -1.3149617713       -0.8554669705  CLST      89              1.0000000000
       444        89  DCM       CL1             2.2443660768       -2.5490066388        1.1654205303  CLST      89              1.0000000000
       445        89  DCM       CL2             1.7571400929       -3.4341835291       -1.5802522047  CLST      89              1.0000000000
       446        90  DCM       C               1.8851318420        2.0898720601       -2.6820200924  CLST      90              1.0000000000
       447        90  DCM       H1              2.0112046350        1.0223454273       -2.3998639619  CLST      90              1.0000000000
       448        90  DCM       H2              0.8224357465        2.4035292245       -2.5967647733  CLST      90              1.0000000000
       449        90  DCM       CL1             2.4236930281        2.3129407718       -4.3699554341  CLST      90              1.0000000000
       450        90  DCM       CL2             2.8747701777        3.1019151010       -1.5935825976  CLST      90              1.0000000000
       451        91  DCM       C               0.7167062476        2.4386473730       -0.8424403986  CLST      91              1.0000000000
       452        91  DCM       H1             -0.2142279036        1.8572515942       -0.9905434847  CLST      91              1.0000000000
       453        91  DCM       H2              0.9567724557        2.5481967741        0.2353470270  CLST      91              1.0000000000
       454        91  DCM       CL1             2.0665767922        1.5906357226       -1.6550544083  CLST      91              1.0000000000
       455        91  DCM       CL2             0.5064454778        4.0643977471       -1.5586822401  CLST      91              1.0000000000
       456        92  DCM       C              -2.9381185932       -2.2438668204        0.2917657140  CLST      92              1.0000000000
       457        92  DCM       H1             -3.4508583580       -2.6593504997       -0.6012668030  CLST      92              1.0000000000
       458        92  DCM       H2             -2.0785940819       -2.8787414168        0.5916942003  CLST      92              1.0000000000
       459        92  DCM       CL1            -2.3432849622       -0.6046339228       -0.0881014482  CLST      92              1.0000000000
       460        92  DCM       CL2            -4.1033843144       -2.1628090824        1.6430944481  CLST      92              1.0000000000
       461        93  DCM       C               1.8282298574        1.0706791659       -0.5609630603  CLST      93              1.0000000000
       462        93  DCM       H1              1.1529302464        1.0189058563        0.3184212775  CLST      93              1.0000000000
       463        93  DCM       H2              1.2828773563        1.4167666272       -1.4637471698  CLST      93              1.0000000000
       464        93  DCM       CL1             3.1508389286        2.2165377756       -0.2090629481  CLST      93              1.0000000000
       465        93  DCM       CL2             2.4983172491       -0.5549487707       -0.8774951890  CLST      93              1.0000000000
       466        94  DCM       C               2.7033152373       -1.3135233529        0.9075288295  CLST      94              1.0000000000
       467        94  DCM       H1              3.5647634255       -1.0294060612        1.5494575232  CLST      94              1.0000000000
       468        94  DCM       H2              1.9032833136       -1.8012723764        1.5044900480  CLST      94              1.0000000000
       469        94  DCM       CL1             2.0406431459        0.1584861784        0.1402847120  CLST      94              1.0000000000
       470        94  DCM       CL2             3.2648522526       -2.4554083736       -0.3480039958  CLST      94              1.0000000000
       471        95  DCM       C              -0.8187222160       -2.7938111315       -2.2373932739  CLST      95              1.0000000000
       472        95  DCM       H1              0.1106573030       -2.6908363859       -1.6408233287  CLST      95              1.0000000000
       473        95  DCM       H2             -0.7445217789       -3.6519323343       -2.9370237762  CLST      95              1.0000000000
       474        95  DCM       CL1            -2.1898100297       -3.0561893626       -1.1242656183  CLST      95              1.0000000000
       475        95  DCM       CL2            -1.0803958902       -1.2925383719       -3.1693814425  CLST      95              1.0000000000
       476        96  DCM       C               2.6347094471        0.1638953723        2.0198859139  CLST      96              1.0000000000
       477        96  DCM       H1              3.4686289102       -0.2723015860        1.4280510358  CLST      96              1.0000000000
       478        96  DCM       H2              2.6414728793       -0.2198996148        3.0597578168  CLST      96              1.0000000000
       479        96  DCM       CL1             2.8090262097        1.9429344137        2.0592722347  CLST      96              1.0000000000
       480        96  DCM       CL2             1.0836539847       -0.2771071814        1.2486518671  CLST      96              1.0000000000
       481        97  DCM       C               2.6367726450        3.0650457993        2.1517661284  CLST      97              1.0000000000
       482        97  DCM       H1              3.2531857567        2.9401109593        3.0672541975  CLST      97              1.0000000000
       483        97  DCM       H2              3.2335797141        2.8501492720        1.2403743040  CLST      97              1.0000000000
       484        97  DCM       CL1             1.2554524509        1.9359208405        2.2225021315  CLST      97              1.0000000000
       485        97  DCM       CL2             2.0368598466        4.7460771933        2.0786107898  CLST      97              1.0000000000
       486        98  DCM       C              -0.5208776949        2.7875972090        2.9103410156  CLST      98              1.0000000000
       487        98  DCM       H1             -1.0774554531        3.7016764729        2.6140328259  CLST      98              1.0000000000
       488        98  DCM       H2             -1.1069724109        1.8734210436        2.6800171215  CLST      98              1.0000000000
       489        98  DCM       CL1             1.0210534818        2.7256622149        2.0086786720  CLST      98              1.0000000000
       490        98  DCM       CL2            -0.1961995781        2.8425127909        4.6677296584  CLST      98              1.0000000000
