* PRE_MLPOT:MONOMER_REPACK
*  DATE:     6/28/26      2: 5: 1      CREATED BY USER: boittier
*
       490  EXT
         1         1  DCM       C              -2.7326063209       -0.0903205875        1.8995684233  CLST      1               1.0000000000
         2         1  DCM       H1             -2.2738922970       -0.7941150195        2.6256850402  CLST      1               1.0000000000
         3         1  DCM       H2             -3.0303938631       -0.6148468559        0.9677924835  CLST      1               1.0000000000
         4         1  DCM       CL1            -1.5461685003        1.1860463786        1.4976054324  CLST      1               1.0000000000
         5         1  DCM       CL2            -4.1848420973        0.6416085883        2.6405546432  CLST      1               1.0000000000
         6         2  DCM       C              -1.0827614149       -3.2724698960       -0.4225232488  CLST      2               1.0000000000
         7         2  DCM       H1             -0.4797711462       -4.2030490382       -0.4683699704  CLST      2               1.0000000000
         8         2  DCM       H2             -1.5112086991       -3.1213995885        0.5901889527  CLST      2               1.0000000000
         9         2  DCM       CL1            -0.0342545008       -1.8811260528       -0.8164549526  CLST      2               1.0000000000
        10         2  DCM       CL2            -2.4154446684       -3.3856503755       -1.6071590569  CLST      2               1.0000000000
        11         3  DCM       C               0.7105802250        2.6941314830        1.4172017802  CLST      3               1.0000000000
        12         3  DCM       H1             -0.2162334715        2.5053809565        0.8344953585  CLST      3               1.0000000000
        13         3  DCM       H2              0.9327293236        1.8490629644        2.1019367173  CLST      3               1.0000000000
        14         3  DCM       CL1             2.0777144189        2.8948530012        0.2830638874  CLST      3               1.0000000000
        15         3  DCM       CL2             0.4972426935        4.1835721717        2.3833587272  CLST      3               1.0000000000
        16         4  DCM       C              -2.2540049963       -0.8472273571       -1.4457112358  CLST      4               1.0000000000
        17         4  DCM       H1             -1.3230601654       -0.6268627782       -0.8814969619  CLST      4               1.0000000000
        18         4  DCM       H2             -2.0422317563       -1.4649637279       -2.3427240635  CLST      4               1.0000000000
        19         4  DCM       CL1            -3.3785796940       -1.7439067676       -0.3849764937  CLST      4               1.0000000000
        20         4  DCM       CL2            -3.0012246940        0.6930901333       -1.9619610726  CLST      4               1.0000000000
        21         5  DCM       C              -0.0775428095        2.6964950696        1.3033175890  CLST      5               1.0000000000
        22         5  DCM       H1             -0.1674432063        2.2578026027        0.2866851914  CLST      5               1.0000000000
        23         5  DCM       H2              0.6986506049        2.1677987854        1.8950018247  CLST      5               1.0000000000
        24         5  DCM       CL1             0.3768282947        4.4189657561        1.1637636436  CLST      5               1.0000000000
        25         5  DCM       CL2            -1.6451743627        2.5503554064        2.1459262844  CLST      5               1.0000000000
        26         6  DCM       C               0.7283169115        0.7061098866       -3.4927614519  CLST      6               1.0000000000
        27         6  DCM       H1              1.1246308241       -0.1989519750       -2.9864280771  CLST      6               1.0000000000
        28         6  DCM       H2              0.3994872771        0.4720949276       -4.5257080717  CLST      6               1.0000000000
        29         6  DCM       CL1            -0.6678600362        1.3280988400       -2.5676359302  CLST      6               1.0000000000
        30         6  DCM       CL2             2.0114063889        1.9458681009       -3.5718501803  CLST      6               1.0000000000
        31         7  DCM       C               0.8878643855       -1.9700917497       -0.5990483341  CLST      7               1.0000000000
        32         7  DCM       H1              0.9866227527       -1.1234141677       -1.3106576977  CLST      7               1.0000000000
        33         7  DCM       H2              1.8066378324       -2.5944742697       -0.5926203266  CLST      7               1.0000000000
        34         7  DCM       CL1             0.6095280102       -1.3159827262        1.0391341936  CLST      7               1.0000000000
        35         7  DCM       CL2            -0.4993306790       -2.9805262862       -1.0911701153  CLST      7               1.0000000000
        36         8  DCM       C               3.3082683181       -2.5192002270       -2.4184810864  CLST      8               1.0000000000
        37         8  DCM       H1              4.1857174104       -2.3489676980       -3.0776715381  CLST      8               1.0000000000
        38         8  DCM       H2              3.5137045535       -2.1724532064       -1.3836603270  CLST      8               1.0000000000
        39         8  DCM       CL1             1.9082619122       -1.6158099036       -3.0673503264  CLST      8               1.0000000000
        40         8  DCM       CL2             2.9365275883       -4.2679889060       -2.3831723435  CLST      8               1.0000000000
        41         9  DCM       C               2.0803007079       -0.0724689480       -2.1643419596  CLST      9               1.0000000000
        42         9  DCM       H1              1.3175298448       -0.8593249444       -1.9917653717  CLST      9               1.0000000000
        43         9  DCM       H2              1.7536039963        0.6330995590       -2.9560052303  CLST      9               1.0000000000
        44         9  DCM       CL1             2.3291707660        0.8324681655       -0.6458391044  CLST      9               1.0000000000
        45         9  DCM       CL2             3.6104941927       -0.8471864806       -2.6663696251  CLST      9               1.0000000000
        46        10  DCM       C               1.2105213961        0.5314104986        3.2588867444  CLST      10              1.0000000000
        47        10  DCM       H1              0.1800585992        0.4063610778        3.6549293539  CLST      10              1.0000000000
        48        10  DCM       H2              1.9097196296       -0.1942528110        3.7250838759  CLST      10              1.0000000000
        49        10  DCM       CL1             1.1909887509        0.2517800400        1.4967850093  CLST      10              1.0000000000
        50        10  DCM       CL2             1.7756984591        2.1920566786        3.6002845198  CLST      10              1.0000000000
        51        11  DCM       C               2.6163908445       -2.2701891568        0.7230425548  CLST      11              1.0000000000
        52        11  DCM       H1              2.4684307842       -1.5064099819        1.5156572942  CLST      11              1.0000000000
        53        11  DCM       H2              3.2131353621       -3.1277528442        1.0997473893  CLST      11              1.0000000000
        54        11  DCM       CL1             1.0202795828       -2.8642574846        0.1783362768  CLST      11              1.0000000000
        55        11  DCM       CL2             3.4793855851       -1.5217687309       -0.6492318589  CLST      11              1.0000000000
        56        12  DCM       C               1.5742050273       -2.5576744047       -1.0271395346  CLST      12              1.0000000000
        57        12  DCM       H1              0.4686391419       -2.5423060354       -0.9252126947  CLST      12              1.0000000000
        58        12  DCM       H2              1.8944350134       -2.0828702247       -1.9787925837  CLST      12              1.0000000000
        59        12  DCM       CL1             2.2968277219       -1.6612442478        0.3409612707  CLST      12              1.0000000000
        60        12  DCM       CL2             2.1386439044       -4.2545315205       -1.0052858348  CLST      12              1.0000000000
        61        13  DCM       C              -0.9881938406        2.1109021775        1.9596930645  CLST      13              1.0000000000
        62        13  DCM       H1             -1.7637850998        1.4386264990        2.3836140037  CLST      13              1.0000000000
        63        13  DCM       H2              0.0294698290        1.7849914376        2.2593991352  CLST      13              1.0000000000
        64        13  DCM       CL1            -1.1061190416        2.0804263615        0.1780790354  CLST      13              1.0000000000
        65        13  DCM       CL2            -1.2681175327        3.7726219031        2.5548143751  CLST      13              1.0000000000
        66        14  DCM       C              -1.4423479867       -0.1485091911        1.6927692428  CLST      14              1.0000000000
        67        14  DCM       H1             -1.4168640233        0.3689195957        0.7119070675  CLST      14              1.0000000000
        68        14  DCM       H2             -0.4188967489       -0.2366697086        2.1117190872  CLST      14              1.0000000000
        69        14  DCM       CL1            -2.4667125085        0.7967952297        2.8075413724  CLST      14              1.0000000000
        70        14  DCM       CL2            -2.1188733119       -1.7863762060        1.4899614494  CLST      14              1.0000000000
        71        15  DCM       C              -1.3967106988        2.3367548636        1.6380567387  CLST      15              1.0000000000
        72        15  DCM       H1             -2.3852758387        2.8078948574        1.4601854052  CLST      15              1.0000000000
        73        15  DCM       H2             -0.6926454424        2.5856420144        0.8179675891  CLST      15              1.0000000000
        74        15  DCM       CL1            -0.7312015819        2.9334726456        3.1860026765  CLST      15              1.0000000000
        75        15  DCM       CL2            -1.5970892259        0.5640066829        1.7135210540  CLST      15              1.0000000000
        76        16  DCM       C              -2.0922911412       -0.7306237434       -0.7661872365  CLST      16              1.0000000000
        77        16  DCM       H1             -2.9366768705       -0.7581659550       -0.0493059155  CLST      16              1.0000000000
        78        16  DCM       H2             -1.9026758395       -1.7283514906       -1.2037044364  CLST      16              1.0000000000
        79        16  DCM       CL1            -2.4871826661        0.4150873849       -2.0833858813  CLST      16              1.0000000000
        80        16  DCM       CL2            -0.6176542936       -0.1801560645        0.0858495738  CLST      16              1.0000000000
        81        17  DCM       C               1.2708045987       -1.8510624685       -1.5301543195  CLST      17              1.0000000000
        82        17  DCM       H1              2.2977366951       -2.0795387792       -1.1771293777  CLST      17              1.0000000000
        83        17  DCM       H2              0.5166669320       -2.1749862388       -0.7833962396  CLST      17              1.0000000000
        84        17  DCM       CL1             1.1171133649       -0.0902110785       -1.7831324301  CLST      17              1.0000000000
        85        17  DCM       CL2             0.9799988834       -2.7113957342       -3.0684197735  CLST      17              1.0000000000
        86        18  DCM       C              -2.5841006414        3.0025643885        1.1303683594  CLST      18              1.0000000000
        87        18  DCM       H1             -2.2685291512        3.9946747702        0.7455743112  CLST      18              1.0000000000
        88        18  DCM       H2             -2.2217913842        2.8410696667        2.1670213326  CLST      18              1.0000000000
        89        18  DCM       CL1            -4.3693641609        2.9190456892        1.1165449631  CLST      18              1.0000000000
        90        18  DCM       CL2            -1.9070034722        1.7303305992        0.0759002736  CLST      18              1.0000000000
        91        19  DCM       C               2.1595202486       -1.9387973970        0.9374307325  CLST      19              1.0000000000
        92        19  DCM       H1              1.1003381179       -1.6975746522        0.7066382291  CLST      19              1.0000000000
        93        19  DCM       H2              2.3714810611       -3.0142093916        0.7655904215  CLST      19              1.0000000000
        94        19  DCM       CL1             3.2276809215       -0.9577569033       -0.1031362872  CLST      19              1.0000000000
        95        19  DCM       CL2             2.4816714286       -1.5677573430        2.6503612716  CLST      19              1.0000000000
        96        20  DCM       C               2.5014632812        1.0804386703        1.2961394723  CLST      20              1.0000000000
        97        20  DCM       H1              3.3187729151        1.8294044410        1.2366827366  CLST      20              1.0000000000
        98        20  DCM       H2              1.6698006846        1.3459845985        0.6100227376  CLST      20              1.0000000000
        99        20  DCM       CL1             3.1420821099       -0.5259771513        0.8478381973  CLST      20              1.0000000000
       100        20  DCM       CL2             1.8805355705        1.0295747517        2.9688049444  CLST      20              1.0000000000
       101        21  DCM       C               0.1457043461       -2.0071200364       -2.0873554398  CLST      21              1.0000000000
       102        21  DCM       H1              0.1484181225       -3.0761450303       -1.7913423660  CLST      21              1.0000000000
       103        21  DCM       H2              0.7669264674       -1.4004349523       -1.3945317915  CLST      21              1.0000000000
       104        21  DCM       CL1             0.8035556675       -1.8652893929       -3.7433507781  CLST      21              1.0000000000
       105        21  DCM       CL2            -1.5355259943       -1.4025694984       -2.0473638757  CLST      21              1.0000000000
       106        22  DCM       C              -1.9611747427       -0.7321704920       -0.2336167526  CLST      22              1.0000000000
       107        22  DCM       H1             -1.7866314223       -1.3894849817        0.6446521186  CLST      22              1.0000000000
       108        22  DCM       H2             -2.4919441444       -1.2764777890       -1.0430242260  CLST      22              1.0000000000
       109        22  DCM       CL1            -2.9436274855        0.6738410411        0.2720862206  CLST      22              1.0000000000
       110        22  DCM       CL2            -0.3851483138       -0.1695313201       -0.8552907207  CLST      22              1.0000000000
       111        23  DCM       C              -2.2340265284        1.9030096840        2.2873076552  CLST      23              1.0000000000
       112        23  DCM       H1             -2.2788002013        2.1273423924        3.3730590926  CLST      23              1.0000000000
       113        23  DCM       H2             -2.9253569770        2.5562576098        1.7146673899  CLST      23              1.0000000000
       114        23  DCM       CL1            -0.5655474871        2.1718917195        1.7106437090  CLST      23              1.0000000000
       115        23  DCM       CL2            -2.6933510117        0.1957508327        2.0338298515  CLST      23              1.0000000000
       116        24  DCM       C               1.7231898270        2.3686533441        2.0306928264  CLST      24              1.0000000000
       117        24  DCM       H1              2.1275368540        1.8071052553        1.1632228713  CLST      24              1.0000000000
       118        24  DCM       H2              2.5309975149        2.6080755230        2.7571894196  CLST      24              1.0000000000
       119        24  DCM       CL1             0.9909995995        3.8915840459        1.4491394334  CLST      24              1.0000000000
       120        24  DCM       CL2             0.4866814405        1.3641212941        2.8382546498  CLST      24              1.0000000000
       121        25  DCM       C               1.9817550900       -2.7118285457        1.5586524914  CLST      25              1.0000000000
       122        25  DCM       H1              1.3476643878       -2.3405778256        0.7260618891  CLST      25              1.0000000000
       123        25  DCM       H2              1.3590229657       -3.0492299294        2.4120629148  CLST      25              1.0000000000
       124        25  DCM       CL1             2.9645811187       -4.0881596321        0.9821945346  CLST      25              1.0000000000
       125        25  DCM       CL2             3.0483743876       -1.3904020067        2.1124637694  CLST      25              1.0000000000
       126        26  DCM       C               2.3376677096        1.9213376723       -2.4324704687  CLST      26              1.0000000000
       127        26  DCM       H1              2.8965428812        1.4618995184       -3.2746629081  CLST      26              1.0000000000
       128        26  DCM       H2              2.5840161969        1.4242417189       -1.4702533449  CLST      26              1.0000000000
       129        26  DCM       CL1             2.7743361851        3.6521892261       -2.3209029283  CLST      26              1.0000000000
       130        26  DCM       CL2             0.5839869764        1.7535014839       -2.7388205255  CLST      26              1.0000000000
       131        27  DCM       C              -1.6621110025       -2.7857814888        1.0077195253  CLST      27              1.0000000000
       132        27  DCM       H1             -1.9730676332       -1.8682970329        0.4673399982  CLST      27              1.0000000000
       133        27  DCM       H2             -0.5954836449       -2.7274336920        1.3033140892  CLST      27              1.0000000000
       134        27  DCM       CL1            -2.6620091880       -2.9641438504        2.4781382397  CLST      27              1.0000000000
       135        27  DCM       CL2            -1.8907898560       -4.1989293582       -0.0609129909  CLST      27              1.0000000000
       136        28  DCM       C               0.5249830044       -2.1827205015       -2.1963301146  CLST      28              1.0000000000
       137        28  DCM       H1              0.3952119638       -1.7230742463       -1.1935769367  CLST      28              1.0000000000
       138        28  DCM       H2              1.1872419974       -3.0717714504       -2.1442176201  CLST      28              1.0000000000
       139        28  DCM       CL1             1.2515116217       -0.9800464352       -3.3015312010  CLST      28              1.0000000000
       140        28  DCM       CL2            -1.0749576063       -2.6821508025       -2.8153700104  CLST      28              1.0000000000
       141        29  DCM       C              -1.3839325343        0.1736305748       -0.8093648839  CLST      29              1.0000000000
       142        29  DCM       H1             -2.3025258959        0.3473905373       -1.4055859723  CLST      29              1.0000000000
       143        29  DCM       H2             -0.4760031642        0.3603299245       -1.4200692953  CLST      29              1.0000000000
       144        29  DCM       CL1            -1.3788324088        1.2839016989        0.5898276705  CLST      29              1.0000000000
       145        29  DCM       CL2            -1.3671840489       -1.5216662370       -0.2415935096  CLST      29              1.0000000000
       146        30  DCM       C               2.4753546889        1.8348068374       -0.6101055259  CLST      30              1.0000000000
       147        30  DCM       H1              3.0529318941        2.2470851243       -1.4638229274  CLST      30              1.0000000000
       148        30  DCM       H2              1.4418615747        1.5671366156       -0.9168618788  CLST      30              1.0000000000
       149        30  DCM       CL1             3.3035165430        0.3732936719       -0.0005249438  CLST      30              1.0000000000
       150        30  DCM       CL2             2.3941259818        3.0636683631        0.6821434466  CLST      30              1.0000000000
       151        31  DCM       C               2.6753273920        2.2885671745        2.2008188304  CLST      31              1.0000000000
       152        31  DCM       H1              2.8115233986        2.4027406157        1.1060953665  CLST      31              1.0000000000
       153        31  DCM       H2              2.8354558925        1.2356485337        2.5145126066  CLST      31              1.0000000000
       154        31  DCM       CL1             1.0149193769        2.7790472970        2.6342964405  CLST      31              1.0000000000
       155        31  DCM       CL2             3.8574796185        3.3267758711        3.0417700290  CLST      31              1.0000000000
       156        32  DCM       C               0.9811277880       -1.0139794367        3.4380340199  CLST      32              1.0000000000
       157        32  DCM       H1              1.0987542186       -0.0787345015        2.8520245835  CLST      32              1.0000000000
       158        32  DCM       H2              1.9510882435       -1.3435595121        3.8649200025  CLST      32              1.0000000000
       159        32  DCM       CL1            -0.1670536326       -0.7250688787        4.7758231884  CLST      32              1.0000000000
       160        32  DCM       CL2             0.3542770061       -2.2992770774        2.3671029775  CLST      32              1.0000000000
       161        33  DCM       C              -0.3552195145        0.6454964596        1.5322297759  CLST      33              1.0000000000
       162        33  DCM       H1             -1.1249634717        0.7114477532        0.7350827440  CLST      33              1.0000000000
       163        33  DCM       H2              0.5414886173        0.0994897828        1.1743560544  CLST      33              1.0000000000
       164        33  DCM       CL1             0.1219311549        2.2981273735        2.0164376021  CLST      33              1.0000000000
       165        33  DCM       CL2            -1.0424441150       -0.2282117430        2.9312217543  CLST      33              1.0000000000
       166        34  DCM       C              -1.5971704351       -2.1511506183       -0.6381578777  CLST      34              1.0000000000
       167        34  DCM       H1             -1.9768605964       -1.1842064358       -1.0301892576  CLST      34              1.0000000000
       168        34  DCM       H2             -0.8215045691       -1.9895950716        0.1397571407  CLST      34              1.0000000000
       169        34  DCM       CL1            -2.9578176982       -3.0622637826        0.0781784711  CLST      34              1.0000000000
       170        34  DCM       CL2            -0.8824157523       -3.0844200485       -1.9833573247  CLST      34              1.0000000000
       171        35  DCM       C               0.9774506463        2.1346752158       -2.2919826517  CLST      35              1.0000000000
       172        35  DCM       H1             -0.0089104257        2.4712201865       -1.9074460283  CLST      35              1.0000000000
       173        35  DCM       H2              1.7330026649        2.9436610478       -2.2178584792  CLST      35              1.0000000000
       174        35  DCM       CL1             1.5306728879        0.7290874918       -1.3351862665  CLST      35              1.0000000000
       175        35  DCM       CL2             0.8099595593        1.6730269166       -4.0094833085  CLST      35              1.0000000000
       176        36  DCM       C              -0.1089785396        1.0155817390       -1.7614350116  CLST      36              1.0000000000
       177        36  DCM       H1              0.2251737773        0.0395124093       -1.3489543360  CLST      36              1.0000000000
       178        36  DCM       H2             -0.5414302666        1.6567165574       -0.9637341645  CLST      36              1.0000000000
       179        36  DCM       CL1             1.2933802888        1.8543631085       -2.4846415327  CLST      36              1.0000000000
       180        36  DCM       CL2            -1.3501680669        0.7213662758       -3.0135575981  CLST      36              1.0000000000
       181        37  DCM       C              -2.5825850837       -1.8594124386        1.7030745147  CLST      37              1.0000000000
       182        37  DCM       H1             -1.9607358898       -1.0634375155        1.2428755231  CLST      37              1.0000000000
       183        37  DCM       H2             -2.0733571864       -2.8449150122        1.6502296010  CLST      37              1.0000000000
       184        37  DCM       CL1            -2.8861321998       -1.4476572394        3.4154983627  CLST      37              1.0000000000
       185        37  DCM       CL2            -4.1332005563       -1.9612437345        0.8245037964  CLST      37              1.0000000000
       186        38  DCM       C              -2.6604269977       -2.8839001396        0.9653422481  CLST      38              1.0000000000
       187        38  DCM       H1             -2.2820411312       -2.1263500243        1.6813539548  CLST      38              1.0000000000
       188        38  DCM       H2             -3.1670659241       -3.7162106004        1.4965743767  CLST      38              1.0000000000
       189        38  DCM       CL1            -1.2831670859       -3.5348483888        0.0364407102  CLST      38              1.0000000000
       190        38  DCM       CL2            -3.8232285399       -2.1082509663       -0.1447315444  CLST      38              1.0000000000
       191        39  DCM       C               2.4118247534       -0.1993895734       -0.3920306351  CLST      39              1.0000000000
       192        39  DCM       H1              1.7424720208       -0.4358583609       -1.2461175576  CLST      39              1.0000000000
       193        39  DCM       H2              2.3406000071       -0.9767902125        0.3970608177  CLST      39              1.0000000000
       194        39  DCM       CL1             4.0982007642       -0.1169361585       -0.9774975413  CLST      39              1.0000000000
       195        39  DCM       CL2             1.9385097927        1.3779907829        0.3004582921  CLST      39              1.0000000000
       196        40  DCM       C               0.3703682157        1.1587647547       -1.3515765389  CLST      40              1.0000000000
       197        40  DCM       H1              0.7767724497        0.5182815628       -2.1617527105  CLST      40              1.0000000000
       198        40  DCM       H2              0.8582964104        2.1551456721       -1.3537350695  CLST      40              1.0000000000
       199        40  DCM       CL1            -1.3872332101        1.3721005578       -1.5938567639  CLST      40              1.0000000000
       200        40  DCM       CL2             0.6720523018        0.3762865229        0.2254648472  CLST      40              1.0000000000
       201        41  DCM       C               1.4756582961       -2.4212737927        2.5038999226  CLST      41              1.0000000000
       202        41  DCM       H1              2.3075374710       -3.1020123790        2.2266461431  CLST      41              1.0000000000
       203        41  DCM       H2              0.5267945685       -2.7263197180        2.0121250396  CLST      41              1.0000000000
       204        41  DCM       CL1             1.2580359085       -2.4597892481        4.2766682208  CLST      41              1.0000000000
       205        41  DCM       CL2             1.8878116770       -0.7641891972        1.9858247183  CLST      41              1.0000000000
       206        42  DCM       C               3.0263846850       -0.0087047724       -0.8497362628  CLST      42              1.0000000000
       207        42  DCM       H1              2.4964792917       -0.6315154403       -0.0974489523  CLST      42              1.0000000000
       208        42  DCM       H2              3.9860259018        0.3712342228       -0.4451373038  CLST      42              1.0000000000
       209        42  DCM       CL1             3.3614097930       -1.0005094167       -2.2942647884  CLST      42              1.0000000000
       210        42  DCM       CL2             1.9892248911        1.3741761235       -1.3003544584  CLST      42              1.0000000000
       211        43  DCM       C               0.2914451319       -2.1110095328        1.4432647550  CLST      43              1.0000000000
       212        43  DCM       H1              0.3003007166       -3.2136779806        1.5663149668  CLST      43              1.0000000000
       213        43  DCM       H2              1.2362759972       -1.6631938205        1.8158657805  CLST      43              1.0000000000
       214        43  DCM       CL1             0.1054164798       -1.7192449213       -0.2906768464  CLST      43              1.0000000000
       215        43  DCM       CL2            -1.0808331010       -1.4395599684        2.3703142706  CLST      43              1.0000000000
       216        44  DCM       C              -2.6548898536        1.7662042457       -2.1160807348  CLST      44              1.0000000000
       217        44  DCM       H1             -2.5646879801        0.6927587835       -2.3805117316  CLST      44              1.0000000000
       218        44  DCM       H2             -2.3576423675        2.4145831795       -2.9669046517  CLST      44              1.0000000000
       219        44  DCM       CL1            -1.5959600160        2.1103892647       -0.7213354993  CLST      44              1.0000000000
       220        44  DCM       CL2            -4.3500384446        2.1139426471       -1.6808411391  CLST      44              1.0000000000
       221        45  DCM       C              -0.3340073515        1.8447778417       -0.0066406527  CLST      45              1.0000000000
       222        45  DCM       H1             -0.2799512856        0.9292372489        0.6199221606  CLST      45              1.0000000000
       223        45  DCM       H2             -1.0454634186        2.5816607822        0.4206365107  CLST      45              1.0000000000
       224        45  DCM       CL1             1.2873313134        2.5882103817       -0.0884561623  CLST      45              1.0000000000
       225        45  DCM       CL2            -0.8745422711        1.3933373652       -1.6493250879  CLST      45              1.0000000000
       226        46  DCM       C              -1.9097106807        2.6255740948       -0.5814078776  CLST      46              1.0000000000
       227        46  DCM       H1             -1.9453169447        2.2785688827        0.4719519430  CLST      46              1.0000000000
       228        46  DCM       H2             -2.8299865744        3.1830399015       -0.8484517994  CLST      46              1.0000000000
       229        46  DCM       CL1            -0.4973346914        3.6993000561       -0.7946308861  CLST      46              1.0000000000
       230        46  DCM       CL2            -1.7587084388        1.2072679438       -1.6554756614  CLST      46              1.0000000000
       231        47  DCM       C              -1.8472917427       -2.6519695783        1.9914176165  CLST      47              1.0000000000
       232        47  DCM       H1             -1.7541426398       -1.8680438030        2.7729808434  CLST      47              1.0000000000
       233        47  DCM       H2             -2.1552197958       -3.6227168870        2.4341713718  CLST      47              1.0000000000
       234        47  DCM       CL1            -3.0728096939       -2.1429888984        0.7939512587  CLST      47              1.0000000000
       235        47  DCM       CL2            -0.2664021634       -2.8571305776        1.1855244029  CLST      47              1.0000000000
       236        48  DCM       C              -2.4675833276       -2.7378230745       -1.6080923619  CLST      48              1.0000000000
       237        48  DCM       H1             -1.7842443565       -3.2822008185       -0.9269178111  CLST      48              1.0000000000
       238        48  DCM       H2             -3.4077531543       -3.3089758936       -1.7764273921  CLST      48              1.0000000000
       239        48  DCM       CL1            -1.6555162488       -2.4910537157       -3.1784100752  CLST      48              1.0000000000
       240        48  DCM       CL2            -2.8759496525       -1.1554564356       -0.8881471075  CLST      48              1.0000000000
       241        49  DCM       C               0.1548085383       -1.1854549276       -0.2800046328  CLST      49              1.0000000000
       242        49  DCM       H1              0.1866852603       -0.1046245025       -0.5321549505  CLST      49              1.0000000000
       243        49  DCM       H2             -0.4077372348       -1.3599743864        0.6602078579  CLST      49              1.0000000000
       244        49  DCM       CL1            -0.6442290891       -2.0715678660       -1.6046636285  CLST      49              1.0000000000
       245        49  DCM       CL2             1.8204313916       -1.7945875737       -0.0813817199  CLST      49              1.0000000000
       246        50  DCM       C              -2.0361263659       -1.8469157966        0.9635155948  CLST      50              1.0000000000
       247        50  DCM       H1             -2.7201708139       -2.2702933929        1.7280092490  CLST      50              1.0000000000
       248        50  DCM       H2             -2.1512778825       -2.3720416503       -0.0080158310  CLST      50              1.0000000000
       249        50  DCM       CL1            -2.4147797323       -0.1154326360        0.7364026181  CLST      50              1.0000000000
       250        50  DCM       CL2            -0.3522415353       -2.0327522464        1.5304718661  CLST      50              1.0000000000
       251        51  DCM       C              -1.6146065751       -1.7631102910       -1.5439159393  CLST      51              1.0000000000
       252        51  DCM       H1             -0.8438559253       -1.2517718279       -0.9289033332  CLST      51              1.0000000000
       253        51  DCM       H2             -1.1618570769       -2.2357010401       -2.4402656022  CLST      51              1.0000000000
       254        51  DCM       CL1            -2.3959831786       -3.0323256801       -0.5627421741  CLST      51              1.0000000000
       255        51  DCM       CL2            -2.8346309651       -0.5653251574       -2.0664615517  CLST      51              1.0000000000
       256        52  DCM       C               1.8191068744        2.2452991517       -0.8871085240  CLST      52              1.0000000000
       257        52  DCM       H1              1.0977515780        1.7373046397       -0.2131223804  CLST      52              1.0000000000
       258        52  DCM       H2              1.5080512216        3.2907382902       -1.0861150890  CLST      52              1.0000000000
       259        52  DCM       CL1             3.4348387017        2.2559871817       -0.1255829799  CLST      52              1.0000000000
       260        52  DCM       CL2             1.8893012953        1.3590629323       -2.4345915481  CLST      52              1.0000000000
       261        53  DCM       C              -0.8133936651       -0.5657942825       -2.8327746307  CLST      53              1.0000000000
       262        53  DCM       H1             -0.9504393570       -1.4809370809       -3.4451199896  CLST      53              1.0000000000
       263        53  DCM       H2             -1.2586619697       -0.6855772380       -1.8226079427  CLST      53              1.0000000000
       264        53  DCM       CL1             0.9331893861       -0.2376773750       -2.6691842118  CLST      53              1.0000000000
       265        53  DCM       CL2            -1.6091832706        0.8007370967       -3.6566701501  CLST      53              1.0000000000
       266        54  DCM       C               1.7716791121        2.3744745012       -2.6575401560  CLST      54              1.0000000000
       267        54  DCM       H1              2.1110126264        3.3571451075       -2.2667187370  CLST      54              1.0000000000
       268        54  DCM       H2              0.9989490989        1.9306566949       -1.9959162953  CLST      54              1.0000000000
       269        54  DCM       CL1             1.0710516978        2.5969711595       -4.2870221783  CLST      54              1.0000000000
       270        54  DCM       CL2             3.1741060547        1.2680047039       -2.7391459453  CLST      54              1.0000000000
       271        55  DCM       C              -1.7177213740        0.0882621593       -0.6473057629  CLST      55              1.0000000000
       272        55  DCM       H1             -2.7022770436       -0.2436989192       -0.2540617506  CLST      55              1.0000000000
       273        55  DCM       H2             -1.7160387742        1.1764806096       -0.8644726854  CLST      55              1.0000000000
       274        55  DCM       CL1            -0.4538877875       -0.2644700459        0.5645696948  CLST      55              1.0000000000
       275        55  DCM       CL2            -1.3675137999       -0.8041734661       -2.1525670261  CLST      55              1.0000000000
       276        56  DCM       C              -2.0017935504        1.2843319471       -2.2645672635  CLST      56              1.0000000000
       277        56  DCM       H1             -1.5070842712        0.9539935515       -3.2020105501  CLST      56              1.0000000000
       278        56  DCM       H2             -1.2813820140        1.3195962439       -1.4197405409  CLST      56              1.0000000000
       279        56  DCM       CL1            -2.6784347373        2.9187204334       -2.5148251013  CLST      56              1.0000000000
       280        56  DCM       CL2            -3.3134507073        0.1375780507       -1.8623827557  CLST      56              1.0000000000
       281        57  DCM       C              -2.6535763153        2.7779421728        2.3985250238  CLST      57              1.0000000000
       282        57  DCM       H1             -2.9759871022        3.8365442052        2.3274415395  CLST      57              1.0000000000
       283        57  DCM       H2             -3.4950061322        2.0876445803        2.1894044626  CLST      57              1.0000000000
       284        57  DCM       CL1            -1.3566797093        2.4843949830        1.2072445606  CLST      57              1.0000000000
       285        57  DCM       CL2            -2.0512911105        2.4743493644        4.0505130520  CLST      57              1.0000000000
       286        58  DCM       C              -0.4721510285       -1.3854334800       -0.0332080165  CLST      58              1.0000000000
       287        58  DCM       H1             -0.8931794206       -0.4185299070       -0.3774970842  CLST      58              1.0000000000
       288        58  DCM       H2              0.5914174733       -1.4858403854       -0.3370369457  CLST      58              1.0000000000
       289        58  DCM       CL1            -0.5793809519       -1.4581875780        1.7489397908  CLST      58              1.0000000000
       290        58  DCM       CL2            -1.4191143530       -2.7202843734       -0.7527011603  CLST      58              1.0000000000
       291        59  DCM       C               0.5349014036        0.4126450149        0.8598164824  CLST      59              1.0000000000
       292        59  DCM       H1              1.4726621971       -0.1093634716        0.5777337022  CLST      59              1.0000000000
       293        59  DCM       H2              0.1355457303        0.0205360028        1.8185513487  CLST      59              1.0000000000
       294        59  DCM       CL1             0.8768357958        2.1584373469        1.0387723360  CLST      59              1.0000000000
       295        59  DCM       CL2            -0.6837576295        0.1602804180       -0.4219249405  CLST      59              1.0000000000
       296        60  DCM       C               0.4227324369        0.8237951346        1.5957741366  CLST      60              1.0000000000
       297        60  DCM       H1             -0.6566295794        1.0681675017        1.5037889563  CLST      60              1.0000000000
       298        60  DCM       H2              0.9316329107        0.8850767949        0.6113360230  CLST      60              1.0000000000
       299        60  DCM       CL1             1.1904459233        1.9809172234        2.7202626055  CLST      60              1.0000000000
       300        60  DCM       CL2             0.5841410250       -0.8386067539        2.2280089581  CLST      60              1.0000000000
       301        61  DCM       C               3.5235974925        1.1523357634        2.0193310509  CLST      61              1.0000000000
       302        61  DCM       H1              3.8702001967        1.6950748121        1.1149790596  CLST      61              1.0000000000
       303        61  DCM       H2              4.1195256733        1.4469105612        2.9071099693  CLST      61              1.0000000000
       304        61  DCM       CL1             1.8031792748        1.5444643572        2.3141811090  CLST      61              1.0000000000
       305        61  DCM       CL2             3.7183795317       -0.6034512642        1.7501107663  CLST      61              1.0000000000
       306        62  DCM       C              -2.5185620736       -1.9471745268        0.8108400013  CLST      62              1.0000000000
       307        62  DCM       H1             -2.3830778940       -0.9204279167        1.2060078743  CLST      62              1.0000000000
       308        62  DCM       H2             -3.1092351207       -2.5697077908        1.5166926287  CLST      62              1.0000000000
       309        62  DCM       CL1            -3.3823588684       -1.8642666441       -0.7522502169  CLST      62              1.0000000000
       310        62  DCM       CL2            -0.9119326141       -2.6947474304        0.5775093605  CLST      62              1.0000000000
       311        63  DCM       C               3.2530930758       -0.8242882337        1.6771143885  CLST      63              1.0000000000
       312        63  DCM       H1              3.7487936584       -0.1506435103        2.4077140350  CLST      63              1.0000000000
       313        63  DCM       H2              2.2921880445       -0.3941661808        1.3249768598  CLST      63              1.0000000000
       314        63  DCM       CL1             4.3375873905       -1.0554260943        0.2770083671  CLST      63              1.0000000000
       315        63  DCM       CL2             2.9362648017       -2.3970625758        2.4621220427  CLST      63              1.0000000000
       316        64  DCM       C               2.1035426302        2.2594261499       -1.0862873700  CLST      64              1.0000000000
       317        64  DCM       H1              2.2519816244        1.6277192271       -1.9874075759  CLST      64              1.0000000000
       318        64  DCM       H2              3.0126692068        2.2636839172       -0.4495001896  CLST      64              1.0000000000
       319        64  DCM       CL1             1.7483663499        3.9339493979       -1.5987046547  CLST      64              1.0000000000
       320        64  DCM       CL2             0.7342069855        1.6087868686       -0.1397041333  CLST      64              1.0000000000
       321        65  DCM       C               1.9492425990       -0.4528293979        1.6358122142  CLST      65              1.0000000000
       322        65  DCM       H1              1.5364750135       -0.9536788871        0.7377599120  CLST      65              1.0000000000
       323        65  DCM       H2              2.1370821770        0.6224599442        1.4384900611  CLST      65              1.0000000000
       324        65  DCM       CL1             0.7752013063       -0.6064528184        2.9729060166  CLST      65              1.0000000000
       325        65  DCM       CL2             3.4830627457       -1.2498141406        2.0885293414  CLST      65              1.0000000000
       326        66  DCM       C              -2.6793757016       -1.9054804692       -1.2633706938  CLST      66              1.0000000000
       327        66  DCM       H1             -3.1974209870       -0.9248885184       -1.2087092502  CLST      66              1.0000000000
       328        66  DCM       H2             -2.4821443079       -2.1950344269       -2.3175049657  CLST      66              1.0000000000
       329        66  DCM       CL1            -1.1242705796       -1.7905319480       -0.3897592711  CLST      66              1.0000000000
       330        66  DCM       CL2            -3.7087680558       -3.1510026528       -0.5003404248  CLST      66              1.0000000000
       331        67  DCM       C               1.3064569943        2.8909045183       -1.2502830468  CLST      67              1.0000000000
       332        67  DCM       H1              1.2678108915        4.0006922323       -1.2612635679  CLST      67              1.0000000000
       333        67  DCM       H2              2.2440357716        2.5298436025       -0.7814298298  CLST      67              1.0000000000
       334        67  DCM       CL1            -0.0852295013        2.2647493854       -0.3164110745  CLST      67              1.0000000000
       335        67  DCM       CL2             1.2309053354        2.2882990577       -2.9297064330  CLST      67              1.0000000000
       336        68  DCM       C              -2.0600732415        4.2909451233       -0.5770518027  CLST      68              1.0000000000
       337        68  DCM       H1             -1.7955918920        5.3225738178       -0.2643429861  CLST      68              1.0000000000
       338        68  DCM       H2             -1.1495958886        3.6998170290       -0.8081742109  CLST      68              1.0000000000
       339        68  DCM       CL1            -2.9568774211        3.4917566640        0.7418130093  CLST      68              1.0000000000
       340        68  DCM       CL2            -3.0854159509        4.3703652060       -2.0371557827  CLST      68              1.0000000000
       341        69  DCM       C               0.0535434267        1.4819526126        3.0506923448  CLST      69              1.0000000000
       342        69  DCM       H1             -0.4860154030        2.0265173285        2.2472017867  CLST      69              1.0000000000
       343        69  DCM       H2              0.6791710484        0.6665546395        2.6307943198  CLST      69              1.0000000000
       344        69  DCM       CL1             1.1036333625        2.6328144242        3.9247245110  CLST      69              1.0000000000
       345        69  DCM       CL2            -1.1411038288        0.7804661278        4.1800449348  CLST      69              1.0000000000
       346        70  DCM       C               1.3255853822        2.2756366270       -3.6171638768  CLST      70              1.0000000000
       347        70  DCM       H1              1.4465370112        3.1481950466       -4.2930296417  CLST      70              1.0000000000
       348        70  DCM       H2              0.2529102682        2.0606427744       -3.4345425622  CLST      70              1.0000000000
       349        70  DCM       CL1             2.0784968101        0.8420499675       -4.3714161496  CLST      70              1.0000000000
       350        70  DCM       CL2             2.1152443776        2.6327483731       -2.0540285579  CLST      70              1.0000000000
       351        71  DCM       C               0.0119695738       -0.6241901325        4.2273004505  CLST      71              1.0000000000
       352        71  DCM       H1             -0.3489413684       -1.5165334053        3.6738064598  CLST      71              1.0000000000
       353        71  DCM       H2             -0.4246861254        0.3076587676        3.8094118602  CLST      71              1.0000000000
       354        71  DCM       CL1            -0.4645615847       -0.7732052300        5.9433260962  CLST      71              1.0000000000
       355        71  DCM       CL2             1.7932144978       -0.5425974891        4.1003733372  CLST      71              1.0000000000
       356        72  DCM       C               1.8550458924       -0.2430678792       -1.5844530117  CLST      72              1.0000000000
       357        72  DCM       H1              2.4511148112        0.4392317754       -2.2257709203  CLST      72              1.0000000000
       358        72  DCM       H2              2.4369372734       -0.5724991641       -0.6981446519  CLST      72              1.0000000000
       359        72  DCM       CL1             0.3911509092        0.6160666461       -1.0327306856  CLST      72              1.0000000000
       360        72  DCM       CL2             1.3837402072       -1.6775186873       -2.5375198600  CLST      72              1.0000000000
       361        73  DCM       C              -2.0640767856       -1.3891212566       -2.8972637307  CLST      73              1.0000000000
       362        73  DCM       H1             -2.5834004157       -1.9843538101       -3.6742478502  CLST      73              1.0000000000
       363        73  DCM       H2             -1.2052036334       -0.8305345513       -3.3277013012  CLST      73              1.0000000000
       364        73  DCM       CL1            -3.2158221214       -0.2181087841       -2.1932007827  CLST      73              1.0000000000
       365        73  DCM       CL2            -1.4681594184       -2.4899357181       -1.6235759492  CLST      73              1.0000000000
       366        74  DCM       C               1.4254823225        0.3910307505        2.0686467869  CLST      74              1.0000000000
       367        74  DCM       H1              1.4387007216        0.9860418437        1.1310689088  CLST      74              1.0000000000
       368        74  DCM       H2              2.2347310142       -0.3683406945        2.0686288776  CLST      74              1.0000000000
       369        74  DCM       CL1             1.6618706668        1.4881641865        3.4578160826  CLST      74              1.0000000000
       370        74  DCM       CL2            -0.1496863646       -0.4402049968        2.2157265202  CLST      74              1.0000000000
       371        75  DCM       C              -0.5332839132       -0.2325563129        0.8602129627  CLST      75              1.0000000000
       372        75  DCM       H1             -0.4835119546       -0.5241905527        1.9288330839  CLST      75              1.0000000000
       373        75  DCM       H2             -1.5862194834       -0.1377326467        0.5234912709  CLST      75              1.0000000000
       374        75  DCM       CL1             0.3081056502        1.3308716712        0.6545625697  CLST      75              1.0000000000
       375        75  DCM       CL2             0.2753014868       -1.4889046964       -0.1150227258  CLST      75              1.0000000000
       376        76  DCM       C               1.8383086196        3.1654900647        0.7944970038  CLST      76              1.0000000000
       377        76  DCM       H1              1.0440801243        2.4192324436        0.5791948777  CLST      76              1.0000000000
       378        76  DCM       H2              2.8189906142        2.8344371324        0.3919935132  CLST      76              1.0000000000
       379        76  DCM       CL1             1.3943221527        4.7237243121        0.0407837443  CLST      76              1.0000000000
       380        76  DCM       CL2             1.9778020325        3.3705570739        2.5630012700  CLST      76              1.0000000000
       381        77  DCM       C              -3.1483427577        0.2002895698       -3.5469630986  CLST      77              1.0000000000
       382        77  DCM       H1             -3.4467520780       -0.4295946588       -4.4100958897  CLST      77              1.0000000000
       383        77  DCM       H2             -3.3842424867       -0.3046348507       -2.5845033897  CLST      77              1.0000000000
       384        77  DCM       CL1            -1.3875494668        0.4965299299       -3.6233749903  CLST      77              1.0000000000
       385        77  DCM       CL2            -4.0392964848        1.7475285712       -3.6268946517  CLST      77              1.0000000000
       386        78  DCM       C               2.4655388424       -1.3766548160       -1.6151343445  CLST      78              1.0000000000
       387        78  DCM       H1              2.5062713423       -1.3630610434       -2.7234846143  CLST      78              1.0000000000
       388        78  DCM       H2              1.4355947508       -1.1797651756       -1.2530928436  CLST      78              1.0000000000
       389        78  DCM       CL1             3.5578875463       -0.1128770042       -0.9806613164  CLST      78              1.0000000000
       390        78  DCM       CL2             2.9971810154       -2.9821688424       -1.0376298757  CLST      78              1.0000000000
       391        79  DCM       C              -1.5747378041        2.0584213714       -1.8967693651  CLST      79              1.0000000000
       392        79  DCM       H1             -1.6207867512        2.7657738949       -1.0402888469  CLST      79              1.0000000000
       393        79  DCM       H2             -2.5094501890        2.0991235434       -2.4936408131  CLST      79              1.0000000000
       394        79  DCM       CL1            -1.3529233815        0.3966146675       -1.2754157093  CLST      79              1.0000000000
       395        79  DCM       CL2            -0.1930116176        2.5006258608       -2.9405951187  CLST      79              1.0000000000
       396        80  DCM       C               0.3700485023       -2.8594094772       -1.3568878847  CLST      80              1.0000000000
       397        80  DCM       H1             -0.0668627799       -3.7950817817       -1.7654929193  CLST      80              1.0000000000
       398        80  DCM       H2              1.4363971429       -3.0041698032       -1.0834010239  CLST      80              1.0000000000
       399        80  DCM       CL1             0.2543580249       -1.5703406248       -2.5886688784  CLST      80              1.0000000000
       400        80  DCM       CL2            -0.5455907283       -2.3803952334        0.0997347651  CLST      80              1.0000000000
       401        81  DCM       C              -1.0702111790       -1.6525490648        1.8788237912  CLST      81              1.0000000000
       402        81  DCM       H1             -1.7577598101       -0.8265230249        2.1544804696  CLST      81              1.0000000000
       403        81  DCM       H2             -0.1531861228       -1.2621761925        1.3902650972  CLST      81              1.0000000000
       404        81  DCM       CL1            -0.6045501125       -2.5373733514        3.3577452651  CLST      81              1.0000000000
       405        81  DCM       CL2            -1.9093184799       -2.7561838094        0.7514249323  CLST      81              1.0000000000
       406        82  DCM       C               0.5847241923        2.3175063240        0.5723849285  CLST      82              1.0000000000
       407        82  DCM       H1              1.4351949169        1.8589092269        0.0266566978  CLST      82              1.0000000000
       408        82  DCM       H2              0.5673764265        1.9951918574        1.6353376572  CLST      82              1.0000000000
       409        82  DCM       CL1             0.7459770023        4.0914272368        0.5049628796  CLST      82              1.0000000000
       410        82  DCM       CL2            -0.9470506490        1.8364649106       -0.2077477589  CLST      82              1.0000000000
       411        83  DCM       C               0.9094041654        0.6230165789       -0.7508787731  CLST      83              1.0000000000
       412        83  DCM       H1              0.1112080266        1.3502228145       -0.4969833020  CLST      83              1.0000000000
       413        83  DCM       H2              0.7642282757        0.2102041757       -1.7697323226  CLST      83              1.0000000000
       414        83  DCM       CL1             2.4948847860        1.4400627650       -0.6811039604  CLST      83              1.0000000000
       415        83  DCM       CL2             0.8549621467       -0.7148974356        0.4276766028  CLST      83              1.0000000000
       416        84  DCM       C              -1.3616777415       -2.0970412357        2.0699224655  CLST      84              1.0000000000
       417        84  DCM       H1             -1.9142184607       -2.0858879208        3.0329445988  CLST      84              1.0000000000
       418        84  DCM       H2             -0.3589033367       -1.6319067683        2.1767939921  CLST      84              1.0000000000
       419        84  DCM       CL1            -1.1592952008       -3.7913313748        1.5339126988  CLST      84              1.0000000000
       420        84  DCM       CL2            -2.2992302991       -1.1777954506        0.8567712442  CLST      84              1.0000000000
       421        85  DCM       C              -0.3797065165        0.9253408828       -2.3210058449  CLST      85              1.0000000000
       422        85  DCM       H1             -0.2575528452        1.1160944548       -1.2307269781  CLST      85              1.0000000000
       423        85  DCM       H2             -0.0312187275       -0.0945138628       -2.5850327470  CLST      85              1.0000000000
       424        85  DCM       CL1            -2.1074499528        1.0826815607       -2.7523654631  CLST      85              1.0000000000
       425        85  DCM       CL2             0.5838419851        2.1263834282       -3.2271235624  CLST      85              1.0000000000
       426        86  DCM       C               0.2781055436       -2.5280045946       -0.2141755236  CLST      86              1.0000000000
       427        86  DCM       H1             -0.4046095684       -1.6625582894       -0.3552484489  CLST      86              1.0000000000
       428        86  DCM       H2             -0.2869229727       -3.4421847117        0.0573143762  CLST      86              1.0000000000
       429        86  DCM       CL1             1.4465268155       -2.1559662046        1.0860550379  CLST      86              1.0000000000
       430        86  DCM       CL2             1.1519303912       -2.8370574280       -1.7381798429  CLST      86              1.0000000000
       431        87  DCM       C              -2.2393548361       -2.7731436501       -2.8195085306  CLST      87              1.0000000000
       432        87  DCM       H1             -2.1159259836       -3.5803720270       -3.5716058924  CLST      87              1.0000000000
       433        87  DCM       H2             -2.9729957567       -2.0142917540       -3.1636551225  CLST      87              1.0000000000
       434        87  DCM       CL1            -2.8213125951       -3.4921726768       -1.2905466364  CLST      87              1.0000000000
       435        87  DCM       CL2            -0.6586984678       -1.9780788557       -2.5631321685  CLST      87              1.0000000000
       436        88  DCM       C               0.3012234987       -2.3557059518        2.8922450356  CLST      88              1.0000000000
       437        88  DCM       H1             -0.2110410631       -2.3082752456        3.8758972206  CLST      88              1.0000000000
       438        88  DCM       H2             -0.3864938227       -2.0635914529        2.0704471784  CLST      88              1.0000000000
       439        88  DCM       CL1             1.6950871521       -1.2387208548        2.9081035649  CLST      88              1.0000000000
       440        88  DCM       CL2             0.8696958590       -4.0261439206        2.6103241094  CLST      88              1.0000000000
       441        89  DCM       C              -0.5363785004        0.2868947157        0.9251011114  CLST      89              1.0000000000
       442        89  DCM       H1             -0.1000304990       -0.2950603585        0.0855151135  CLST      89              1.0000000000
       443        89  DCM       H2             -1.5336986898        0.6942272118        0.6523086604  CLST      89              1.0000000000
       444        89  DCM       CL1            -0.7080168141       -0.7863369117        2.3419687710  CLST      89              1.0000000000
       445        89  DCM       CL2             0.5604700961        1.6391480247        1.3203975501  CLST      89              1.0000000000
       446        90  DCM       C               1.4571864234       -1.4714375745       -2.9716284977  CLST      90              1.0000000000
       447        90  DCM       H1              1.4094601060       -0.3918480601       -3.2214543770  CLST      90              1.0000000000
       448        90  DCM       H2              2.3264371825       -1.9584677149       -3.4614981812  CLST      90              1.0000000000
       449        90  DCM       CL1             1.6185336159       -1.6480153045       -1.1995912327  CLST      90              1.0000000000
       450        90  DCM       CL2            -0.0449567352       -2.2656563998       -3.5302464516  CLST      90              1.0000000000
       451        91  DCM       C               3.8237267368        2.6198362198       -1.2557311938  CLST      91              1.0000000000
       452        91  DCM       H1              3.9965412379        2.5104290555       -0.1641084331  CLST      91              1.0000000000
       453        91  DCM       H2              4.5309000316        3.3514460256       -1.7015135282  CLST      91              1.0000000000
       454        91  DCM       CL1             4.0517108155        1.0311625112       -2.0424596238  CLST      91              1.0000000000
       455        91  DCM       CL2             2.1521556516        3.1920796328       -1.5224490925  CLST      91              1.0000000000
       456        92  DCM       C               1.4428101659        0.9593276385        0.7043004224  CLST      92              1.0000000000
       457        92  DCM       H1              1.9450943602        0.1698359371        0.1062365676  CLST      92              1.0000000000
       458        92  DCM       H2              0.3719843779        1.0531911412        0.4264658363  CLST      92              1.0000000000
       459        92  DCM       CL1             1.5592738495        0.5419194721        2.4383525564  CLST      92              1.0000000000
       460        92  DCM       CL2             2.2589442039        2.5182671816        0.4025271683  CLST      92              1.0000000000
       461        93  DCM       C               1.1012534873       -0.2429247751        0.4888278289  CLST      93              1.0000000000
       462        93  DCM       H1              1.0297838537        0.5524474164       -0.2819196933  CLST      93              1.0000000000
       463        93  DCM       H2              1.9943444543       -0.0932677224        1.1315641203  CLST      93              1.0000000000
       464        93  DCM       CL1             1.2255277220       -1.8255586262       -0.3239791487  CLST      93              1.0000000000
       465        93  DCM       CL2            -0.3640494821       -0.2036847140        1.5078759050  CLST      93              1.0000000000
       466        94  DCM       C              -3.2193756564       -0.0771285700        2.9148497597  CLST      94              1.0000000000
       467        94  DCM       H1             -2.8842220249       -0.7748929342        2.1188059189  CLST      94              1.0000000000
       468        94  DCM       H2             -2.3598271671        0.2821107389        3.5193690831  CLST      94              1.0000000000
       469        94  DCM       CL1            -4.3694464132       -0.9265799597        3.9874698591  CLST      94              1.0000000000
       470        94  DCM       CL2            -4.0258965605        1.3257073325        2.1545634039  CLST      94              1.0000000000
       471        95  DCM       C               0.0316716972        3.3746916073        2.8209521226  CLST      95              1.0000000000
       472        95  DCM       H1             -0.2830125008        3.6419868711        1.7908769040  CLST      95              1.0000000000
       473        95  DCM       H2              0.4919723054        2.3653204450        2.8494542824  CLST      95              1.0000000000
       474        95  DCM       CL1            -1.3930939250        3.3715807307        3.8888837730  CLST      95              1.0000000000
       475        95  DCM       CL2             1.2172315332        4.5733376486        3.4093758220  CLST      95              1.0000000000
       476        96  DCM       C              -1.8770808081        1.4186142868       -3.0857949211  CLST      96              1.0000000000
       477        96  DCM       H1             -1.1592954699        1.7575938509       -3.8583414251  CLST      96              1.0000000000
       478        96  DCM       H2             -1.3880588327        0.7517308511       -2.3458497365  CLST      96              1.0000000000
       479        96  DCM       CL1            -2.5134585404        2.8547929464       -2.2459587690  CLST      96              1.0000000000
       480        96  DCM       CL2            -3.2047693892        0.5280954687       -3.8781813842  CLST      96              1.0000000000
       481        97  DCM       C               1.6528205225       -2.7530525894       -0.0981263401  CLST      97              1.0000000000
       482        97  DCM       H1              1.5002188242       -1.8570381557       -0.7369680920  CLST      97              1.0000000000
       483        97  DCM       H2              2.3168820857       -2.5202474386        0.7590170065  CLST      97              1.0000000000
       484        97  DCM       CL1             2.3988980365       -4.0505243104       -1.0756598926  CLST      97              1.0000000000
       485        97  DCM       CL2             0.0717956971       -3.2990705681        0.5318474470  CLST      97              1.0000000000
       486        98  DCM       C              -2.4136154606        1.1077351078        0.6772036237  CLST      98              1.0000000000
       487        98  DCM       H1             -2.7190928401        1.9111373528        1.3794349184  CLST      98              1.0000000000
       488        98  DCM       H2             -1.7934762718        0.3471596027        1.1950840512  CLST      98              1.0000000000
       489        98  DCM       CL1            -3.8759039012        0.3169607873        0.0212659068  CLST      98              1.0000000000
       490        98  DCM       CL2            -1.4602859487        1.8258687193       -0.6514774343  CLST      98              1.0000000000
