* INITIAL
*  DATE:     6/28/26      2: 3: 1      CREATED BY USER: boittier
*
       475  EXT
         1         1  DCM       C              -5.7730298477        1.3523467795        4.0552639534  CLST      1               1.0000000000
         2         1  DCM       H1             -6.4683494105        0.6089231354        4.4998620158  CLST      1               1.0000000000
         3         1  DCM       H2             -5.7137589663        2.2680940588        4.6802419341  CLST      1               1.0000000000
         4         1  DCM       CL1            -4.1453063670        0.6293117891        3.9360626965  CLST      1               1.0000000000
         5         1  DCM       CL2            -6.3617268952        1.7900561261        2.4277212619  CLST      1               1.0000000000
         6         2  DCM       C              -5.9128736810       -2.1183959135        2.0489261807  CLST      2               1.0000000000
         7         2  DCM       H1             -6.3896100649       -2.8538373390        1.3696478052  CLST      2               1.0000000000
         8         2  DCM       H2             -6.0702014995       -1.0820109585        1.6839777414  CLST      2               1.0000000000
         9         2  DCM       CL1            -6.6354409924       -2.2803216240        3.6742589491  CLST      2               1.0000000000
        10         2  DCM       CL2            -4.1603417330       -2.4559748899        2.1236251429  CLST      2               1.0000000000
        11         3  DCM       C               9.5285304602       12.4261120356       -2.9259862970  CLST      3               1.0000000000
        12         3  DCM       H1              9.0431789586       13.0989660981       -3.6642659525  CLST      3               1.0000000000
        13         3  DCM       H2              8.9085917096       12.3276238989       -2.0097778860  CLST      3               1.0000000000
        14         3  DCM       CL1             9.7429827843       10.8108335311       -3.6628557889  CLST      3               1.0000000000
        15         3  DCM       CL2            11.1220702835       13.1025771670       -2.4788065425  CLST      3               1.0000000000
        16         4  DCM       C               3.4903869215       -9.3987016776        0.6618057110  CLST      4               1.0000000000
        17         4  DCM       H1              2.7683864212       -9.9457644468        1.3040886132  CLST      4               1.0000000000
        18         4  DCM       H2              3.5907875005       -9.8852055780       -0.3315793655  CLST      4               1.0000000000
        19         4  DCM       CL1             2.9141808789       -7.7220123539        0.4338872587  CLST      4               1.0000000000
        20         4  DCM       CL2             5.0841509312       -9.3882090473        1.4692320102  CLST      4               1.0000000000
        21         5  DCM       C              -5.2209209501       -5.9355382898        2.3207592934  CLST      5               1.0000000000
        22         5  DCM       H1             -5.9775882430       -5.1313283785        2.4319994996  CLST      5               1.0000000000
        23         5  DCM       H2             -4.5520985382       -5.7351271656        1.4597106339  CLST      5               1.0000000000
        24         5  DCM       CL1            -4.2415368981       -6.0150336390        3.8126706128  CLST      5               1.0000000000
        25         5  DCM       CL2            -6.0612971957       -7.4904197024        2.0592154352  CLST      5               1.0000000000
        26         6  DCM       C              -6.1909763103        5.6152067652       -2.4727416797  CLST      6               1.0000000000
        27         6  DCM       H1             -7.2288694894        5.8153573316       -2.1370093602  CLST      6               1.0000000000
        28         6  DCM       H2             -5.4530456800        6.1506772186       -1.8412420537  CLST      6               1.0000000000
        29         6  DCM       CL1            -5.8837587395        3.8601133279       -2.3682131130  CLST      6               1.0000000000
        30         6  DCM       CL2            -6.0103603666        6.1710293751       -4.1591536611  CLST      6               1.0000000000
        31         7  DCM       C               8.5160125552        0.1063333516        3.6311045594  CLST      7               1.0000000000
        32         7  DCM       H1              9.0812508746       -0.8297918671        3.8188773163  CLST      7               1.0000000000
        33         7  DCM       H2              9.1404460220        0.8439377014        3.0860207425  CLST      7               1.0000000000
        34         7  DCM       CL1             8.0115400646        0.8074286577        5.1956965564  CLST      7               1.0000000000
        35         7  DCM       CL2             7.0758578255       -0.2721116060        2.6453243914  CLST      7               1.0000000000
        36         8  DCM       C               9.2422590100       13.2352514659        2.3400624944  CLST      8               1.0000000000
        37         8  DCM       H1              9.2831926249       12.1357929703        2.2011028346  CLST      8               1.0000000000
        38         8  DCM       H2             10.0433338062       13.5812111127        3.0271073036  CLST      8               1.0000000000
        39         8  DCM       CL1             9.4563019463       14.0244640190        0.7509028969  CLST      8               1.0000000000
        40         8  DCM       CL2             7.6510781879       13.6683918522        3.0305720455  CLST      8               1.0000000000
        41         9  DCM       C              -3.7188354713        4.0397232432        1.9512743812  CLST      9               1.0000000000
        42         9  DCM       H1             -3.5897861178        2.9787183628        2.2461192723  CLST      9               1.0000000000
        43         9  DCM       H2             -4.4538624235        4.1416025917        1.1240639246  CLST      9               1.0000000000
        44         9  DCM       CL1            -4.3066735476        4.9614615657        3.3651111608  CLST      9               1.0000000000
        45         9  DCM       CL2            -2.1399957103        4.6782017066        1.4095142449  CLST      9               1.0000000000
        46        10  DCM       C               0.3460646206        0.3715866329        6.7420939893  CLST      10              1.0000000000
        47        10  DCM       H1             -0.5252296166       -0.2741840579        6.5024842885  CLST      10              1.0000000000
        48        10  DCM       H2              0.1048887807        1.4441285883        6.5857519538  CLST      10              1.0000000000
        49        10  DCM       CL1             0.8036353400        0.1276133156        8.4517953354  CLST      10              1.0000000000
        50        10  DCM       CL2             1.7082132115       -0.0733334679        5.6778372002  CLST      10              1.0000000000
        51        11  DCM       C              -0.1561704999       -8.7360739459        2.2110785101  CLST      11              1.0000000000
        52        11  DCM       H1              0.5647025498       -9.1597134779        2.9402220412  CLST      11              1.0000000000
        53        11  DCM       H2              0.1471188912       -7.7167661244        1.8926639170  CLST      11              1.0000000000
        54        11  DCM       CL1            -0.2199714887       -9.8021499194        0.7775565913  CLST      11              1.0000000000
        55        11  DCM       CL2            -1.7661610568       -8.6484031948        2.9804257593  CLST      11              1.0000000000
        56        12  DCM       C              -0.0991963790       -0.9648599139       -3.0094522499  CLST      12              1.0000000000
        57        12  DCM       H1             -0.3869120393       -1.0911973660       -4.0733506568  CLST      12              1.0000000000
        58        12  DCM       H2              0.9469422464       -1.2941568088       -2.8406627295  CLST      12              1.0000000000
        59        12  DCM       CL1            -0.2445226070        0.7570761472       -2.5615937030  CLST      12              1.0000000000
        60        12  DCM       CL2            -1.1907012000       -1.9411046187       -1.9887290626  CLST      12              1.0000000000
        61        13  DCM       C               9.0223109132       -7.4650433355       -3.2752279975  CLST      13              1.0000000000
        62        13  DCM       H1              9.2026024041       -8.5605978666       -3.2953154657  CLST      13              1.0000000000
        63        13  DCM       H2              9.3188778389       -7.0333445889       -2.2965484855  CLST      13              1.0000000000
        64        13  DCM       CL1             9.9867916286       -6.6876993432       -4.5632574884  CLST      13              1.0000000000
        65        13  DCM       CL2             7.2829046537       -7.1526377201       -3.5469377477  CLST      13              1.0000000000
        66        14  DCM       C               4.7344209576       10.7073244587        3.3655364275  CLST      14              1.0000000000
        67        14  DCM       H1              5.6407162515       11.2536130235        3.0280811005  CLST      14              1.0000000000
        68        14  DCM       H2              3.9791883068       11.4059383596        3.7828255610  CLST      14              1.0000000000
        69        14  DCM       CL1             4.0220158545        9.8510103710        1.9679688469  CLST      14              1.0000000000
        70        14  DCM       CL2             5.1969467339        9.5266485514        4.6268175340  CLST      14              1.0000000000
        71        15  DCM       C              -7.2728140595       -9.0990511279        5.4311063600  CLST      15              1.0000000000
        72        15  DCM       H1             -7.3984200267       -8.6264664514        4.4348487526  CLST      15              1.0000000000
        73        15  DCM       H2             -7.2067708179      -10.2038455115        5.3432018987  CLST      15              1.0000000000
        74        15  DCM       CL1            -5.7691860821       -8.4828126249        6.1759075115  CLST      15              1.0000000000
        75        15  DCM       CL2            -8.6770252381       -8.6760835225        6.4550708446  CLST      15              1.0000000000
        76        16  DCM       C               1.0432148166       -7.1062641520       -7.3775986968  CLST      16              1.0000000000
        77        16  DCM       H1              1.9649191756       -7.5434907653       -6.9393780586  CLST      16              1.0000000000
        78        16  DCM       H2              1.1132860383       -6.0003278770       -7.4283452987  CLST      16              1.0000000000
        79        16  DCM       CL1             0.8113385732       -7.7538297944       -9.0272897759  CLST      16              1.0000000000
        80        16  DCM       CL2            -0.3539801596       -7.5404333565       -6.3558803648  CLST      16              1.0000000000
        81        17  DCM       C               5.6014000855       -7.1984332425        7.0085222692  CLST      17              1.0000000000
        82        17  DCM       H1              6.0581706309       -7.7547290250        7.8543747706  CLST      17              1.0000000000
        83        17  DCM       H2              5.4105191835       -7.8695186724        6.1445059656  CLST      17              1.0000000000
        84        17  DCM       CL1             6.7168590380       -5.9022314311        6.4982384681  CLST      17              1.0000000000
        85        17  DCM       CL2             4.0564251527       -6.4796818075        7.5477877181  CLST      17              1.0000000000
        86        18  DCM       C              10.7035208249      -10.1658021104        4.9952619923  CLST      18              1.0000000000
        87        18  DCM       H1             11.4341569644      -10.9247695125        5.3459397239  CLST      18              1.0000000000
        88        18  DCM       H2             11.2045965222       -9.1961706617        4.7902072183  CLST      18              1.0000000000
        89        18  DCM       CL1             9.9343286291      -10.7535940570        3.4927610513  CLST      18              1.0000000000
        90        18  DCM       CL2             9.4618222750       -9.9260837329        6.2594111797  CLST      18              1.0000000000
        91        19  DCM       C              -4.5541740159       -2.6204348710       -1.5359011204  CLST      19              1.0000000000
        92        19  DCM       H1             -4.1664591182       -2.5155698704       -2.5707129545  CLST      19              1.0000000000
        93        19  DCM       H2             -3.9167571989       -2.0656378599       -0.8155109007  CLST      19              1.0000000000
        94        19  DCM       CL1            -6.2154716177       -1.9725086096       -1.4663966513  CLST      19              1.0000000000
        95        19  DCM       CL2            -4.5643016868       -4.3474917032       -1.0929356851  CLST      19              1.0000000000
        96        20  DCM       C              -3.4431713190       -8.3699566895       -0.3164498941  CLST      20              1.0000000000
        97        20  DCM       H1             -3.4077296573       -7.6420600478        0.5207000478  CLST      20              1.0000000000
        98        20  DCM       H2             -2.4582405604       -8.4383053822       -0.8210797672  CLST      20              1.0000000000
        99        20  DCM       CL1            -3.8802730828       -9.9788371615        0.3278989949  CLST      20              1.0000000000
       100        20  DCM       CL2            -4.6694783923       -7.8442158968       -1.5037800196  CLST      20              1.0000000000
       101        21  DCM       C               0.5532229939        3.1120213058        3.7964726990  CLST      21              1.0000000000
       102        21  DCM       H1              0.8946050403        3.3395126312        2.7641912997  CLST      21              1.0000000000
       103        21  DCM       H2              1.3651881251        2.6419503927        4.3898712807  CLST      21              1.0000000000
       104        21  DCM       CL1             0.0582002769        4.6308820004        4.5964470036  CLST      21              1.0000000000
       105        21  DCM       CL2            -0.8352176258        1.9907657989        3.7194405885  CLST      21              1.0000000000
       106        22  DCM       C               2.9791155230       -5.4419930167       -2.8693061035  CLST      22              1.0000000000
       107        22  DCM       H1              3.3138491738       -5.9755605504       -1.9562347719  CLST      22              1.0000000000
       108        22  DCM       H2              3.8458174931       -5.1014897528       -3.4762515485  CLST      22              1.0000000000
       109        22  DCM       CL1             2.0092591905       -4.0212847766       -2.3868958875  CLST      22              1.0000000000
       110        22  DCM       CL2             1.9824406938       -6.5513349628       -3.8514937659  CLST      22              1.0000000000
       111        23  DCM       C              10.9400807468       -3.8747916767       -1.4059464562  CLST      23              1.0000000000
       112        23  DCM       H1             11.7183920538       -3.7814470235       -2.1924811738  CLST      23              1.0000000000
       113        23  DCM       H2             11.0263122725       -3.0581303958       -0.6581915897  CLST      23              1.0000000000
       114        23  DCM       CL1             9.3277589643       -3.7931392682       -2.1737056650  CLST      23              1.0000000000
       115        23  DCM       CL2            11.1387742229       -5.4456056730       -0.5757086909  CLST      23              1.0000000000
       116        24  DCM       C              -0.9358288296       -4.9722514492       -0.1833017666  CLST      24              1.0000000000
       117        24  DCM       H1             -1.7646106626       -4.6770623294       -0.8564941868  CLST      24              1.0000000000
       118        24  DCM       H2             -0.1645102753       -4.1750689638       -0.1347957952  CLST      24              1.0000000000
       119        24  DCM       CL1            -1.5909223151       -5.2573073201        1.4527192841  CLST      24              1.0000000000
       120        24  DCM       CL2            -0.1933861622       -6.4716038372       -0.8056603191  CLST      24              1.0000000000
       121        25  DCM       C              -9.2197047330       -1.8475724624       -3.2536212480  CLST      25              1.0000000000
       122        25  DCM       H1             -8.1827531088       -1.9840848516       -3.6229239379  CLST      25              1.0000000000
       123        25  DCM       H2             -9.2276982550       -1.3353124275       -2.2685289509  CLST      25              1.0000000000
       124        25  DCM       CL1           -10.1278136941       -0.8654602687       -4.4371779860  CLST      25              1.0000000000
       125        25  DCM       CL2            -9.9895295731       -3.4491188642       -3.0795779043  CLST      25              1.0000000000
       126        26  DCM       C               5.9286803070       -1.6988445206      -11.0890015161  CLST      26              1.0000000000
       127        26  DCM       H1              6.3972185399       -0.9727552422      -11.7875207429  CLST      26              1.0000000000
       128        26  DCM       H2              6.3547471236       -2.7146020948      -11.2252566207  CLST      26              1.0000000000
       129        26  DCM       CL1             6.2250295793       -1.1633082552       -9.4091968507  CLST      26              1.0000000000
       130        26  DCM       CL2             4.1704042876       -1.7572065857      -11.4065666025  CLST      26              1.0000000000
       131        27  DCM       C               9.5249045709        7.2431515888       -2.8904960867  CLST      27              1.0000000000
       132        27  DCM       H1             10.2510088206        7.6610992243       -2.1612862243  CLST      27              1.0000000000
       133        27  DCM       H2              9.5051218348        7.8434975019       -3.8238655132  CLST      27              1.0000000000
       134        27  DCM       CL1             7.8935813614        7.2577281027       -2.1631951199  CLST      27              1.0000000000
       135        27  DCM       CL2             9.9933519527        5.5650841808       -3.2917675140  CLST      27              1.0000000000
       136        28  DCM       C               9.0667206984       -6.8563288247        4.0383828860  CLST      28              1.0000000000
       137        28  DCM       H1              9.4566966096       -7.2175116211        5.0115098913  CLST      28              1.0000000000
       138        28  DCM       H2              8.7444985854       -5.7969574104        4.1122106840  CLST      28              1.0000000000
       139        28  DCM       CL1             7.6693371984       -7.8668787908        3.5722676466  CLST      28              1.0000000000
       140        28  DCM       CL2            10.3518283056       -6.9920248652        2.8044494678  CLST      28              1.0000000000
       141        29  DCM       C              -5.2757776465       10.3885032294       -2.4374808259  CLST      29              1.0000000000
       142        29  DCM       H1             -6.0796012175       10.2233989787       -1.6924527691  CLST      29              1.0000000000
       143        29  DCM       H2             -5.7005999956       10.5496986790       -3.4499134698  CLST      29              1.0000000000
       144        29  DCM       CL1            -4.3326460765       11.8278904235       -1.9567732727  CLST      29              1.0000000000
       145        29  DCM       CL2            -4.2142566138        8.9541397340       -2.4800236564  CLST      29              1.0000000000
       146        30  DCM       C              -5.0336955941       -9.8331067450       -6.2570054408  CLST      30              1.0000000000
       147        30  DCM       H1             -5.5514706289       -9.7724567213       -7.2371415311  CLST      30              1.0000000000
       148        30  DCM       H2             -5.1835379558      -10.8261837022       -5.7828661154  CLST      30              1.0000000000
       149        30  DCM       CL1            -3.2841524508       -9.5694460914       -6.5066665711  CLST      30              1.0000000000
       150        30  DCM       CL2            -5.6891231790       -8.5720797925       -5.1736351962  CLST      30              1.0000000000
       151        31  DCM       C              11.4230133985        5.4098923044        0.3353921084  CLST      31              1.0000000000
       152        31  DCM       H1             11.9005787821        4.9939420341       -0.5771685367  CLST      31              1.0000000000
       153        31  DCM       H2             11.8062690416        4.9144665066        1.2527019813  CLST      31              1.0000000000
       154        31  DCM       CL1            11.7722051582        7.1589580880        0.4294221885  CLST      31              1.0000000000
       155        31  DCM       CL2             9.6591169866        5.1546460178        0.2333059586  CLST      31              1.0000000000
       156        32  DCM       C              -6.7021052248       -0.2171867634       -6.1730293057  CLST      32              1.0000000000
       157        32  DCM       H1             -5.9087962698       -0.9809309732       -6.3096256994  CLST      32              1.0000000000
       158        32  DCM       H2             -7.7114823201       -0.6723882443       -6.2540422972  CLST      32              1.0000000000
       159        32  DCM       CL1            -6.5209541533        0.5259176589       -4.5572922538  CLST      32              1.0000000000
       160        32  DCM       CL2            -6.5240683632        1.0263417065       -7.4426409310  CLST      32              1.0000000000
       161        33  DCM       C              -9.2454378049        3.9286596034        1.4206105344  CLST      33              1.0000000000
       162        33  DCM       H1             -9.1143436085        2.8253682882        1.4418313377  CLST      33              1.0000000000
       163        33  DCM       H2             -9.4201136450        4.3308649618        2.4400072966  CLST      33              1.0000000000
       164        33  DCM       CL1            -7.7730849164        4.6828278012        0.7406005314  CLST      33              1.0000000000
       165        33  DCM       CL2           -10.6574432426        4.3266623335        0.4013750473  CLST      33              1.0000000000
       166        34  DCM       C              -2.8656335971        3.3517703758        6.4173164324  CLST      34              1.0000000000
       167        34  DCM       H1             -1.9397980658        3.9095587087        6.6692446775  CLST      34              1.0000000000
       168        34  DCM       H2             -2.9655125995        3.2212452308        5.3200390106  CLST      34              1.0000000000
       169        34  DCM       CL1            -2.8100100833        1.7433585255        7.1912980077  CLST      34              1.0000000000
       170        34  DCM       CL2            -4.2731611097        4.2647371116        7.0265070610  CLST      34              1.0000000000
       171        35  DCM       C               6.2499298164        0.5938028449        9.3709033675  CLST      35              1.0000000000
       172        35  DCM       H1              6.3652989576       -0.4934771061        9.5664136337  CLST      35              1.0000000000
       173        35  DCM       H2              5.9336938928        1.1330332661       10.2882006804  CLST      35              1.0000000000
       174        35  DCM       CL1             7.8189697183        1.2514936872        8.8237859202  CLST      35              1.0000000000
       175        35  DCM       CL2             5.0156414045        0.8340473570        8.0998031180  CLST      35              1.0000000000
       176        36  DCM       C              -5.7642529613        1.2761032400        9.0628491579  CLST      36              1.0000000000
       177        36  DCM       H1             -4.9600137803        0.5188966899        9.1749986167  CLST      36              1.0000000000
       178        36  DCM       H2             -5.3570164914        2.3059212313        9.1482057087  CLST      36              1.0000000000
       179        36  DCM       CL1            -6.5247634099        1.0812274358        7.4568419890  CLST      36              1.0000000000
       180        36  DCM       CL2            -6.9828930740        1.0259236681       10.3455125604  CLST      36              1.0000000000
       181        37  DCM       C               8.6240477490      -10.2205587677        0.1892128909  CLST      37              1.0000000000
       182        37  DCM       H1              8.1973726891       -9.6398728308        1.0349567419  CLST      37              1.0000000000
       183        37  DCM       H2              8.7985908733      -11.2769295925        0.4819540172  CLST      37              1.0000000000
       184        37  DCM       CL1             7.4821972919      -10.1754637406       -1.1872728547  CLST      37              1.0000000000
       185        37  DCM       CL2            10.1819097419       -9.4842760368       -0.2897346219  CLST      37              1.0000000000
       186        38  DCM       C               8.4532484920       -3.4502389184        1.4693880258  CLST      38              1.0000000000
       187        38  DCM       H1              8.6301563158       -4.1834419802        0.6574780307  CLST      38              1.0000000000
       188        38  DCM       H2              8.1564007904       -2.4657416593        1.0519262393  CLST      38              1.0000000000
       189        38  DCM       CL1             7.1436666954       -4.0543072967        2.5229172279  CLST      38              1.0000000000
       190        38  DCM       CL2             9.9594031283       -3.2665613293        2.4129979809  CLST      38              1.0000000000
       191        39  DCM       C              -4.6007518059        0.5829640433      -10.6190053651  CLST      39              1.0000000000
       192        39  DCM       H1             -4.1935896990        0.8409281825      -11.6195659333  CLST      39              1.0000000000
       193        39  DCM       H2             -5.2136961526        1.4136538659      -10.2099810003  CLST      39              1.0000000000
       194        39  DCM       CL1            -5.6267464477       -0.8730706390      -10.7662206007  CLST      39              1.0000000000
       195        39  DCM       CL2            -3.2410864693        0.2619250552       -9.5037198420  CLST      39              1.0000000000
       196        40  DCM       C              -3.6498055882        8.1913921943        1.7966242538  CLST      40              1.0000000000
       197        40  DCM       H1             -4.3146603554        8.4967285074        2.6323093716  CLST      40              1.0000000000
       198        40  DCM       H2             -2.8212426645        7.5478514823        2.1602067673  CLST      40              1.0000000000
       199        40  DCM       CL1            -4.6091228591        7.2800583106        0.5964075739  CLST      40              1.0000000000
       200        40  DCM       CL2            -2.9587783942        9.6521982438        1.0333958008  CLST      40              1.0000000000
       201        41  DCM       C             -12.6063081517      -18.8049688851        1.4613310566  CLST      41              1.0000000000
       202        41  DCM       H1            -13.2065106177      -17.8762410567        1.3582459751  CLST      41              1.0000000000
       203        41  DCM       H2            -11.6420034730      -18.6038415931        1.9742333782  CLST      41              1.0000000000
       204        41  DCM       CL1           -13.5364977544      -19.9945883038        2.4187235769  CLST      41              1.0000000000
       205        41  DCM       CL2           -12.2720126138      -19.4644379101       -0.1666867660  CLST      41              1.0000000000
       206        42  DCM       C               3.5383525001       -3.7063827952        1.1688200596  CLST      42              1.0000000000
       207        42  DCM       H1              4.2905989750       -4.5063368281        1.3131512176  CLST      42              1.0000000000
       208        42  DCM       H2              3.4044461049       -3.4677848832        0.0931333514  CLST      42              1.0000000000
       209        42  DCM       CL1             1.9800646257       -4.2542318574        1.8458529609  CLST      42              1.0000000000
       210        42  DCM       CL2             4.0981926234       -2.2412541329        2.0201363476  CLST      42              1.0000000000
       211        43  DCM       C              -9.1928209655       -5.4293018615        3.8012601955  CLST      43              1.0000000000
       212        43  DCM       H1            -10.0389904608       -5.0973310322        4.4367317426  CLST      43              1.0000000000
       213        43  DCM       H2             -9.0158206102       -4.7198691491        2.9661099097  CLST      43              1.0000000000
       214        43  DCM       CL1            -9.5762029626       -7.0413779608        3.1339257329  CLST      43              1.0000000000
       215        43  DCM       CL2            -7.7250153010       -5.5234845882        4.8136373645  CLST      43              1.0000000000
       216        44  DCM       C              12.2204134541       -9.4216380033        9.1030513049  CLST      44              1.0000000000
       217        44  DCM       H1             12.3227493354      -10.2162915243        9.8719921803  CLST      44              1.0000000000
       218        44  DCM       H2             11.1579843354       -9.2811355939        8.8125690313  CLST      44              1.0000000000
       219        44  DCM       CL1            12.8511697481       -7.8860655290        9.7673591103  CLST      44              1.0000000000
       220        44  DCM       CL2            13.1612543997       -9.8878258472        7.6563911842  CLST      44              1.0000000000
       221        45  DCM       C              13.0722675976        8.6881018803       -3.6975124568  CLST      45              1.0000000000
       222        45  DCM       H1             13.8664110744        8.8395666675       -4.4590631820  CLST      45              1.0000000000
       223        45  DCM       H2             12.0633117478        8.7549117988       -4.1552347032  CLST      45              1.0000000000
       224        45  DCM       CL1            13.2745574617        7.0732102770       -2.9580171106  CLST      45              1.0000000000
       225        45  DCM       CL2            13.2224911863        9.9502344355       -2.4430662951  CLST      45              1.0000000000
       226        46  DCM       C               3.3564683136       -3.6157453899       -8.2543822164  CLST      46              1.0000000000
       227        46  DCM       H1              4.2916147581       -3.2495027587       -8.7250184978  CLST      46              1.0000000000
       228        46  DCM       H2              2.7687489433       -2.7750378314       -7.8276126214  CLST      46              1.0000000000
       229        46  DCM       CL1             2.3715220408       -4.4375744258       -9.4988004502  CLST      46              1.0000000000
       230        46  DCM       CL2             3.7776553566       -4.7635459825       -6.9486294557  CLST      46              1.0000000000
       231        47  DCM       C              -3.4637440728        4.0917228441       -7.0549727465  CLST      47              1.0000000000
       232        47  DCM       H1             -3.3107952324        5.1812147686       -6.9086529901  CLST      47              1.0000000000
       233        47  DCM       H2             -2.5004782580        3.5420701334       -6.9993162881  CLST      47              1.0000000000
       234        47  DCM       CL1            -4.5587435740        3.4857007802       -5.7809923032  CLST      47              1.0000000000
       235        47  DCM       CL2            -4.1983917610        3.8171655261       -8.6602988277  CLST      47              1.0000000000
       236        48  DCM       C              -9.1452447228       -3.3866981799        7.3981640966  CLST      48              1.0000000000
       237        48  DCM       H1             -9.3174426910       -2.7193269891        8.2684875247  CLST      48              1.0000000000
       238        48  DCM       H2             -8.0824222447       -3.7053734999        7.3415791210  CLST      48              1.0000000000
       239        48  DCM       CL1           -10.1771891240       -4.8367775450        7.5649298939  CLST      48              1.0000000000
       240        48  DCM       CL2            -9.5693389527       -2.5130040480        5.8979710368  CLST      48              1.0000000000
       241        49  DCM       C              10.9716989960       -5.6700678939        7.3089696350  CLST      49              1.0000000000
       242        49  DCM       H1             11.5757449279       -5.1959698907        8.1114058305  CLST      49              1.0000000000
       243        49  DCM       H2             10.4467546306       -4.9059074216        6.6984735148  CLST      49              1.0000000000
       244        49  DCM       CL1            12.0536480774       -6.6186428053        6.2486005874  CLST      49              1.0000000000
       245        49  DCM       CL2             9.7588117807       -6.7475850305        8.0580371699  CLST      49              1.0000000000
       246        50  DCM       C               2.8415414293       -7.0093716623        4.0981492950  CLST      50              1.0000000000
       247        50  DCM       H1              2.1112386164       -6.8859317927        3.2717402265  CLST      50              1.0000000000
       248        50  DCM       H2              2.5181867514       -6.4473473300        4.9996125948  CLST      50              1.0000000000
       249        50  DCM       CL1             2.9775984282       -8.7436121911        4.5063424977  CLST      50              1.0000000000
       250        50  DCM       CL2             4.4304619210       -6.3925798619        3.5644450075  CLST      50              1.0000000000
       251        51  DCM       C              10.0361789314        7.9105645710        5.1655947831  CLST      51              1.0000000000
       252        51  DCM       H1             10.5041752747        7.9640721892        6.1709666641  CLST      51              1.0000000000
       253        51  DCM       H2              9.8977521029        8.9252893507        4.7372944547  CLST      51              1.0000000000
       254        51  DCM       CL1             8.4393671285        7.1190320566        5.3071044210  CLST      51              1.0000000000
       255        51  DCM       CL2            11.0911387536        6.9638503686        4.0766719993  CLST      51              1.0000000000
       256        52  DCM       C               7.4680315328       -7.9059858155       -6.9982744657  CLST      52              1.0000000000
       257        52  DCM       H1              7.8711651097       -8.5254690224       -6.1692221544  CLST      52              1.0000000000
       258        52  DCM       H2              7.7666424387       -6.8425569543       -6.8818327728  CLST      52              1.0000000000
       259        52  DCM       CL1             8.1106882394       -8.5281155034       -8.5456627408  CLST      52              1.0000000000
       260        52  DCM       CL2             5.6826350766       -8.0142213019       -6.9899027502  CLST      52              1.0000000000
       261        53  DCM       C               1.8475178234        3.6521808436        8.8605520745  CLST      53              1.0000000000
       262        53  DCM       H1              2.1344706626        2.8050666617        9.5189143995  CLST      53              1.0000000000
       263        53  DCM       H2              2.2609978922        4.6116804304        9.2377286177  CLST      53              1.0000000000
       264        53  DCM       CL1             2.4830407280        3.3511212048        7.2186612921  CLST      53              1.0000000000
       265        53  DCM       CL2             0.0648825663        3.7679830738        8.8041824075  CLST      53              1.0000000000
       266        54  DCM       C              12.0722197352        6.0613137801       -6.4711545350  CLST      54              1.0000000000
       267        54  DCM       H1             12.0668057603        5.5668221970       -5.4773178950  CLST      54              1.0000000000
       268        54  DCM       H2             11.8352207201        5.3361678847       -7.2790282655  CLST      54              1.0000000000
       269        54  DCM       CL1            10.8486991465        7.3651665797       -6.4832881651  CLST      54              1.0000000000
       270        54  DCM       CL2            13.6944634918        6.7515355957       -6.7668976798  CLST      54              1.0000000000
       271        55  DCM       C               8.1956882269        7.9381984814        1.6327633282  CLST      55              1.0000000000
       272        55  DCM       H1              8.7986827646        7.2540332398        2.2645807552  CLST      55              1.0000000000
       273        55  DCM       H2              8.6723082799        8.0810701877        0.6405351503  CLST      55              1.0000000000
       274        55  DCM       CL1             6.5702248412        7.2341067912        1.4027617157  CLST      55              1.0000000000
       275        55  DCM       CL2             8.0603382821        9.5191647911        2.4502345045  CLST      55              1.0000000000
       276        56  DCM       C              -9.0157476282        1.8171048151       -1.8552831041  CLST      56              1.0000000000
       277        56  DCM       H1             -9.0460946993        2.9228256622       -1.7658975109  CLST      56              1.0000000000
       278        56  DCM       H2             -8.8670152171        1.5064307069       -2.9110839096  CLST      56              1.0000000000
       279        56  DCM       CL1            -7.6649669538        1.1955206464       -0.8670703370  CLST      56              1.0000000000
       280        56  DCM       CL2           -10.5591325523        1.1413712034       -1.2600144691  CLST      56              1.0000000000
       281        57  DCM       C               9.6166957940        1.5010735873       -0.1171275811  CLST      57              1.0000000000
       282        57  DCM       H1              9.8245011123        2.0800886613        0.8075607179  CLST      57              1.0000000000
       283        57  DCM       H2              8.5586558989        1.6231440805       -0.4326326909  CLST      57              1.0000000000
       284        57  DCM       CL1            10.6867813308        2.0895766556       -1.4230761521  CLST      57              1.0000000000
       285        57  DCM       CL2             9.9392113726       -0.2293991036        0.1940434377  CLST      57              1.0000000000
       286        58  DCM       C              16.4069047117       -7.4339388536      -12.5178248471  CLST      58              1.0000000000
       287        58  DCM       H1             16.6080241752       -7.9262085710      -13.4928257510  CLST      58              1.0000000000
       288        58  DCM       H2             17.0463159147       -7.8584398124      -11.7151300964  CLST      58              1.0000000000
       289        58  DCM       CL1            16.7481383662       -5.6852812544      -12.6686842795  CLST      58              1.0000000000
       290        58  DCM       CL2            14.6899173864       -7.6821828134      -12.0850051929  CLST      58              1.0000000000
       291        59  DCM       C              -2.8699368639        0.4146811987       -5.6886351158  CLST      59              1.0000000000
       292        59  DCM       H1             -3.6142455984        0.6001061266       -6.4914696282  CLST      59              1.0000000000
       293        59  DCM       H2             -2.9533386873        1.1711837150       -4.8819212047  CLST      59              1.0000000000
       294        59  DCM       CL1            -1.2277127242        0.4972621548       -6.3866938764  CLST      59              1.0000000000
       295        59  DCM       CL2            -3.1581733584       -1.2048400969       -4.9927649676  CLST      59              1.0000000000
       296        60  DCM       C             -12.1710383807        6.2760873629        5.7526740931  CLST      60              1.0000000000
       297        60  DCM       H1            -13.2077272128        6.6478747133        5.6225945664  CLST      60              1.0000000000
       298        60  DCM       H2            -11.4287159502        7.0589807136        5.4825694763  CLST      60              1.0000000000
       299        60  DCM       CL1           -11.9279487014        5.8177996747        7.4630238177  CLST      60              1.0000000000
       300        60  DCM       CL2           -11.9230930918        4.8527078630        4.6982761411  CLST      60              1.0000000000
       301        61  DCM       C              -8.8379489903        6.9751429083      -13.5659173801  CLST      61              1.0000000000
       302        61  DCM       H1             -8.2154419830        7.8372248286      -13.8860974775  CLST      61              1.0000000000
       303        61  DCM       H2             -8.2771173579        6.0207020595      -13.6551336138  CLST      61              1.0000000000
       304        61  DCM       CL1            -9.3196843206        7.2081426163      -11.8597812125  CLST      61              1.0000000000
       305        61  DCM       CL2           -10.2928663504        6.8926839367      -14.6019944557  CLST      61              1.0000000000
       306        62  DCM       C              -3.4794203979        8.2570804632       -6.0148375206  CLST      62              1.0000000000
       307        62  DCM       H1             -3.2081366337        7.8025923582       -6.9895653470  CLST      62              1.0000000000
       308        62  DCM       H2             -3.5340427833        7.4877002168       -5.2152989152  CLST      62              1.0000000000
       309        62  DCM       CL1            -2.2367791588        9.4628450804       -5.5710604519  CLST      62              1.0000000000
       310        62  DCM       CL2            -5.0716046014        9.0531557158       -6.1724739808  CLST      62              1.0000000000
       311        63  DCM       C              -4.3673746277       12.6067915854       -5.5400297974  CLST      63              1.0000000000
       312        63  DCM       H1             -3.9691756966       13.5472193566       -5.1041172174  CLST      63              1.0000000000
       313        63  DCM       H2             -4.0085806411       11.7228088813       -4.9730412645  CLST      63              1.0000000000
       314        63  DCM       CL1            -6.1540365661       12.6465060016       -5.4835330608  CLST      63              1.0000000000
       315        63  DCM       CL2            -3.8172061278       12.4684287411       -7.2353784660  CLST      63              1.0000000000
       316        64  DCM       C             -10.3726995579        0.7839117241        7.0942144819  CLST      64              1.0000000000
       317        64  DCM       H1            -10.7713818323       -0.0222729991        6.4475476663  CLST      64              1.0000000000
       318        64  DCM       H2             -9.3920530312        1.1408352796        6.7190985381  CLST      64              1.0000000000
       319        64  DCM       CL1           -11.5336555044        2.1408892105        7.1002200269  CLST      64              1.0000000000
       320        64  DCM       CL2           -10.1661498170        0.1548618202        8.7531336548  CLST      64              1.0000000000
       321        65  DCM       C              -9.1347779745       10.5444499369       -4.2845602144  CLST      65              1.0000000000
       322        65  DCM       H1            -10.2176275480       10.3197513304       -4.1924010758  CLST      65              1.0000000000
       323        65  DCM       H2             -8.9200688692       11.1168511881       -5.2119928646  CLST      65              1.0000000000
       324        65  DCM       CL1            -8.6212802519       11.5128567936       -2.8728588280  CLST      65              1.0000000000
       325        65  DCM       CL2            -8.2250520575        9.0066814911       -4.3281578646  CLST      65              1.0000000000
       326        66  DCM       C               8.2066868840       -2.0960840459        7.2984614735  CLST      66              1.0000000000
       327        66  DCM       H1              7.1538087513       -1.7494165908        7.3585103669  CLST      66              1.0000000000
       328        66  DCM       H2              8.9112991804       -1.2397856811        7.3548335163  CLST      66              1.0000000000
       329        66  DCM       CL1             8.5318994553       -3.2079467118        8.6584594245  CLST      66              1.0000000000
       330        66  DCM       CL2             8.4520230956       -2.9470255804        5.7471152469  CLST      66              1.0000000000
       331        67  DCM       C               4.4530469208        2.0780738307        4.1944613241  CLST      67              1.0000000000
       332        67  DCM       H1              4.0200997545        1.6837617867        5.1376912048  CLST      67              1.0000000000
       333        67  DCM       H2              5.5354417363        1.8462323268        4.1301739664  CLST      67              1.0000000000
       334        67  DCM       CL1             3.6214763788        1.3243074096        2.8045036708  CLST      67              1.0000000000
       335        67  DCM       CL2             4.2327717681        3.8514223400        4.1392365442  CLST      67              1.0000000000
       336        68  DCM       C               5.6475549962       -6.1561040967      -10.1361528840  CLST      68              1.0000000000
       337        68  DCM       H1              4.7429922174       -6.3371928356       -9.5178379614  CLST      68              1.0000000000
       338        68  DCM       H2              6.1934814818       -7.1038603592      -10.3278271083  CLST      68              1.0000000000
       339        68  DCM       CL1             5.1540061144       -5.4459864057      -11.7001420012  CLST      68              1.0000000000
       340        68  DCM       CL2             6.7287558749       -5.0250015242       -9.2709800559  CLST      68              1.0000000000
       341        69  DCM       C              -3.2034386499       -6.1015618713       -4.3261997303  CLST      69              1.0000000000
       342        69  DCM       H1             -2.9222035875       -7.1661093107       -4.1853168308  CLST      69              1.0000000000
       343        69  DCM       H2             -4.1249933970       -5.8545079975       -3.7584638512  CLST      69              1.0000000000
       344        69  DCM       CL1            -1.8713683543       -5.0617145076       -3.7513894069  CLST      69              1.0000000000
       345        69  DCM       CL2            -3.4921585168       -5.8028854563       -6.0627792368  CLST      69              1.0000000000
       346        70  DCM       C               8.2258444440       11.4913373131        5.8548885834  CLST      70              1.0000000000
       347        70  DCM       H1              7.7580253543       11.1036434085        4.9258913855  CLST      70              1.0000000000
       348        70  DCM       H2              7.7600608991       12.4504271580        6.1652690100  CLST      70              1.0000000000
       349        70  DCM       CL1             8.0090283634       10.2891182436        7.1590136534  CLST      70              1.0000000000
       350        70  DCM       CL2             9.9683628929       11.7583196792        5.5604385799  CLST      70              1.0000000000
       351        71  DCM       C              -1.5581271577      -10.7752397737       -2.8087335787  CLST      71              1.0000000000
       352        71  DCM       H1             -1.0143387907      -11.5101770380       -3.4387553246  CLST      71              1.0000000000
       353        71  DCM       H2             -1.4006625681      -10.9773061694       -1.7284157046  CLST      71              1.0000000000
       354        71  DCM       CL1            -0.9595473935       -9.1345971320       -3.1877486120  CLST      71              1.0000000000
       355        71  DCM       CL2            -3.3055235780      -10.8844790065       -3.1669320935  CLST      71              1.0000000000
       356        72  DCM       C               4.6003073497       -3.2126351385        5.4132754873  CLST      72              1.0000000000
       357        72  DCM       H1              4.9442424013       -3.6539478736        6.3703708847  CLST      72              1.0000000000
       358        72  DCM       H2              5.0949214295       -3.7027840053        4.5499787845  CLST      72              1.0000000000
       359        72  DCM       CL1             4.9997237978       -1.4716923301        5.3961393688  CLST      72              1.0000000000
       360        72  DCM       CL2             2.8331632160       -3.4367823702        5.2762000095  CLST      72              1.0000000000
       361        73  DCM       C              -2.8075229742       -7.2166788108       -9.4381840449  CLST      73              1.0000000000
       362        73  DCM       H1             -2.4578952237       -7.7916066818      -10.3217848593  CLST      73              1.0000000000
       363        73  DCM       H2             -2.3225973088       -7.5811122836       -8.5092981044  CLST      73              1.0000000000
       364        73  DCM       CL1            -2.3939663528       -5.4931390280       -9.6661531779  CLST      73              1.0000000000
       365        73  DCM       CL2            -4.5789404181       -7.4029751541       -9.2800322826  CLST      73              1.0000000000
       366        74  DCM       C              -2.1796638098        3.9420079993       -2.9295703325  CLST      74              1.0000000000
       367        74  DCM       H1             -1.6931007872        3.5931345639       -1.9945345250  CLST      74              1.0000000000
       368        74  DCM       H2             -3.1355695046        3.4065398806       -3.1062380773  CLST      74              1.0000000000
       369        74  DCM       CL1            -2.5121745820        5.6931239982       -2.8054528594  CLST      74              1.0000000000
       370        74  DCM       CL2            -1.0916614706        3.6286981514       -4.3101542898  CLST      74              1.0000000000
       371        75  DCM       C               6.1121816776       -6.4070519124       -0.2222576934  CLST      75              1.0000000000
       372        75  DCM       H1              5.5485305301       -6.3584392453        0.7323345645  CLST      75              1.0000000000
       373        75  DCM       H2              5.6980691240       -7.1895189620       -0.8928982540  CLST      75              1.0000000000
       374        75  DCM       CL1             6.0259207456       -4.8216112524       -1.0426483999  CLST      75              1.0000000000
       375        75  DCM       CL2             7.8097249329       -6.8034030926        0.1476429900  CLST      75              1.0000000000
       376        76  DCM       C               6.5705712855       10.3422269197       -0.8940485573  CLST      76              1.0000000000
       377        76  DCM       H1              7.5785075797        9.8844227226       -0.8191837806  CLST      76              1.0000000000
       378        76  DCM       H2              5.7936406902        9.6640980705       -0.4822368386  CLST      76              1.0000000000
       379        76  DCM       CL1             6.5623079504       11.8723746579        0.0270955236  CLST      76              1.0000000000
       380        76  DCM       CL2             6.2086876407       10.6683638912       -2.6131703500  CLST      76              1.0000000000
       381        77  DCM       C              -7.0062178198       -4.9241251902       -4.9217113099  CLST      77              1.0000000000
       382        77  DCM       H1             -6.5577925653       -5.6160407470       -5.6650127702  CLST      77              1.0000000000
       383        77  DCM       H2             -8.0171768894       -4.5927643733       -5.2409664273  CLST      77              1.0000000000
       384        77  DCM       CL1            -7.1358989309       -5.7621795543       -3.3501261727  CLST      77              1.0000000000
       385        77  DCM       CL2            -5.9527936520       -3.4931248877       -4.7514807318  CLST      77              1.0000000000
       386        78  DCM       C               0.7475794563       -0.5945648998        1.6480520671  CLST      78              1.0000000000
       387        78  DCM       H1              1.4611873169       -0.7339420330        2.4875935962  CLST      78              1.0000000000
       388        78  DCM       H2              0.3525509480        0.4414100674        1.6224899111  CLST      78              1.0000000000
       389        78  DCM       CL1             1.5821454626       -0.9165098738        0.1023914577  CLST      78              1.0000000000
       390        78  DCM       CL2            -0.6137223267       -1.7324214686        1.8534811225  CLST      78              1.0000000000
       391        79  DCM       C              -5.5846970600       -3.8756881159       -8.5662083814  CLST      79              1.0000000000
       392        79  DCM       H1             -5.4775825773       -3.9742677408       -9.6674697771  CLST      79              1.0000000000
       393        79  DCM       H2             -5.4954616048       -4.8624022644       -8.0662820556  CLST      79              1.0000000000
       394        79  DCM       CL1            -4.2955362475       -2.8014924202       -7.9548818587  CLST      79              1.0000000000
       395        79  DCM       CL2            -7.1870792097       -3.1775281279       -8.1914264374  CLST      79              1.0000000000
       396        80  DCM       C               7.8491967680        4.0915113796        3.3543478819  CLST      80              1.0000000000
       397        80  DCM       H1              7.7269954631        5.1847181428        3.2112389389  CLST      80              1.0000000000
       398        80  DCM       H2              7.3288559378        3.7508471223        4.2743098501  CLST      80              1.0000000000
       399        80  DCM       CL1             7.1559556524        3.2463935297        1.9403492580  CLST      80              1.0000000000
       400        80  DCM       CL2             9.5906237240        3.7137696035        3.4966906686  CLST      80              1.0000000000
       401        81  DCM       C              -6.2219619053       11.0376479114        1.2774047878  CLST      81              1.0000000000
       402        81  DCM       H1             -5.4207239541       11.6965788282        0.8805972753  CLST      81              1.0000000000
       403        81  DCM       H2             -6.0805707878        9.9901115910        0.9385929081  CLST      81              1.0000000000
       404        81  DCM       CL1            -6.1773735440       11.0834016841        3.0635870079  CLST      81              1.0000000000
       405        81  DCM       CL2            -7.8037059913       11.6284505913        0.6930446809  CLST      81              1.0000000000
       406        82  DCM       C             -10.1564475503       -1.2902613613        2.3439497478  CLST      82              1.0000000000
       407        82  DCM       H1            -11.2177861839       -1.1216475239        2.0639337981  CLST      82              1.0000000000
       408        82  DCM       H2            -10.0550521800       -2.1775746265        3.0035346181  CLST      82              1.0000000000
       409        82  DCM       CL1            -9.2005740815       -1.5667227090        0.8601854586  CLST      82              1.0000000000
       410        82  DCM       CL2            -9.5417178193        0.1514638331        3.2059516336  CLST      82              1.0000000000
       411        83  DCM       C              -9.5694417281        7.7404217799       -1.0927032795  CLST      83              1.0000000000
       412        83  DCM       H1             -9.6618851366        7.3750251119       -2.1375806380  CLST      83              1.0000000000
       413        83  DCM       H2             -9.8475853080        6.9501662251       -0.3662137036  CLST      83              1.0000000000
       414        83  DCM       CL1            -7.8799475498        8.2303440957       -0.7890641597  CLST      83              1.0000000000
       415        83  DCM       CL2           -10.6523120154        9.1426123364       -0.8635903649  CLST      83              1.0000000000
       416        84  DCM       C               3.2956686749       -2.2954725817        8.8593148191  CLST      84              1.0000000000
       417        84  DCM       H1              3.3098301435       -1.7928659420        7.8691502329  CLST      84              1.0000000000
       418        84  DCM       H2              3.0710858633       -1.5702790136        9.6693063295  CLST      84              1.0000000000
       419        84  DCM       CL1             2.0324381755       -3.5591428019        8.8466485595  CLST      84              1.0000000000
       420        84  DCM       CL2             4.8928635085       -3.0357568992        9.1676084318  CLST      84              1.0000000000
       421        85  DCM       C             -13.8268301478       -0.8275479998        6.4367166396  CLST      85              1.0000000000
       422        85  DCM       H1            -14.8641476973       -1.2011153133        6.3054774633  CLST      85              1.0000000000
       423        85  DCM       H2            -13.8225754712        0.1870577338        6.8891579255  CLST      85              1.0000000000
       424        85  DCM       CL1           -12.9384450729       -1.9448951778        7.5130014752  CLST      85              1.0000000000
       425        85  DCM       CL2           -13.0267585338       -0.7560050683        4.8387403858  CLST      85              1.0000000000
       426        86  DCM       C              -8.9787516091        8.5366855911        2.7566060157  CLST      86              1.0000000000
       427        86  DCM       H1             -9.0352549226        9.2360759234        1.8966712373  CLST      86              1.0000000000
       428        86  DCM       H2             -9.0935183472        9.0769932079        3.7198984681  CLST      86              1.0000000000
       429        86  DCM       CL1           -10.2846261969        7.3277632439        2.6035211766  CLST      86              1.0000000000
       430        86  DCM       CL2            -7.3917842427        7.7158139856        2.7361508719  CLST      86              1.0000000000
       431        87  DCM       C              11.8547810883       10.8378360139        0.8475326098  CLST      87              1.0000000000
       432        87  DCM       H1             12.0140929899       11.9351960773        0.7832547915  CLST      87              1.0000000000
       433        87  DCM       H2             12.7226320083       10.2828574870        0.4332242607  CLST      87              1.0000000000
       434        87  DCM       CL1            11.6401338036       10.3720057535        2.5595953762  CLST      87              1.0000000000
       435        87  DCM       CL2            10.3920994851       10.4082746681       -0.0847787858  CLST      87              1.0000000000
       436        88  DCM       C              -8.4943539027        3.8209414011       -5.2401298416  CLST      88              1.0000000000
       437        88  DCM       H1             -7.5719305195        3.4107169998       -4.7783691295  CLST      88              1.0000000000
       438        88  DCM       H2             -8.2477568127        4.4618809185       -6.1134039359  CLST      88              1.0000000000
       439        88  DCM       CL1            -9.5213585454        2.4643315784       -5.7845523385  CLST      88              1.0000000000
       440        88  DCM       CL2            -9.3772118286        4.7972167844       -4.0283356556  CLST      88              1.0000000000
       441        89  DCM       C              -0.7690244089       -3.5456968781       -6.8895599458  CLST      89              1.0000000000
       442        89  DCM       H1             -0.8420537488       -4.6040639752       -7.2124387221  CLST      89              1.0000000000
       443        89  DCM       H2             -1.7005947502       -3.2256509731       -6.3787279655  CLST      89              1.0000000000
       444        89  DCM       CL1             0.6031271784       -3.3704037783       -5.7587890437  CLST      89              1.0000000000
       445        89  DCM       CL2            -0.5094336827       -2.5133974619       -8.3248902773  CLST      89              1.0000000000
       446        90  DCM       C             -12.9403816779       -4.5208348875        4.9110862565  CLST      90              1.0000000000
       447        90  DCM       H1            -13.9882565352       -4.2481008383        5.1540523574  CLST      90              1.0000000000
       448        90  DCM       H2            -12.2298285989       -4.0444693475        5.6184430730  CLST      90              1.0000000000
       449        90  DCM       CL1           -12.5601989222       -3.9675200923        3.2552432942  CLST      90              1.0000000000
       450        90  DCM       CL2           -12.7569436479       -6.2954324422        5.0166027983  CLST      90              1.0000000000
       451        91  DCM       C              -4.1009353213        1.0493394210       -0.3481464400  CLST      91              1.0000000000
       452        91  DCM       H1             -4.5398566503        2.0532295279       -0.1760985090  CLST      91              1.0000000000
       453        91  DCM       H2             -4.7550572782        0.2524138457        0.0644914285  CLST      91              1.0000000000
       454        91  DCM       CL1            -3.9126768341        0.7983540719       -2.1042169484  CLST      91              1.0000000000
       455        91  DCM       CL2            -2.5037874900        0.9586550264        0.4441005640  CLST      91              1.0000000000
       456        92  DCM       C              -0.0680689039        6.8902632933       -7.9799369400  CLST      92              1.0000000000
       457        92  DCM       H1              0.8381514419        6.3549419699       -8.3373601407  CLST      92              1.0000000000
       458        92  DCM       H2              0.0777886013        7.9903435394       -8.0118994631  CLST      92              1.0000000000
       459        92  DCM       CL1            -1.4522910035        6.4530189155       -9.0227412072  CLST      92              1.0000000000
       460        92  DCM       CL2            -0.4017435932        6.3995147753       -6.2956664005  CLST      92              1.0000000000
       461        93  DCM       C              -9.3981387052       -5.8248691001       -0.3155374375  CLST      93              1.0000000000
       462        93  DCM       H1             -9.3690342575       -6.8238917490        0.1676647139  CLST      93              1.0000000000
       463        93  DCM       H2             -9.4533920993       -5.9185146501       -1.4205712742  CLST      93              1.0000000000
       464        93  DCM       CL1           -10.8331109958       -4.9321611013        0.2644927129  CLST      93              1.0000000000
       465        93  DCM       CL2            -7.9183258749       -4.9256303848        0.1186952141  CLST      93              1.0000000000
       466        94  DCM       C              -8.8553909257        3.8704546217        8.7354008549  CLST      94              1.0000000000
       467        94  DCM       H1             -9.4302814232        4.3662541917        7.9260504063  CLST      94              1.0000000000
       468        94  DCM       H2             -8.6451012705        2.8121770035        8.4813689052  CLST      94              1.0000000000
       469        94  DCM       CL1            -7.3071601894        4.7315723857        8.9662504730  CLST      94              1.0000000000
       470        94  DCM       CL2            -9.8123280173        3.9190696904       10.2429222994  CLST      94              1.0000000000
       471        95  DCM       C              -7.6068440056        4.8061304862        5.0025676872  CLST      95              1.0000000000
       472        95  DCM       H1             -6.6786016707        4.6433162467        5.5879177659  CLST      95              1.0000000000
       473        95  DCM       H2             -7.3749148462        5.0463808231        3.9443874871  CLST      95              1.0000000000
       474        95  DCM       CL1            -8.5932349718        3.3193194458        5.0584192418  CLST      95              1.0000000000
       475        95  DCM       CL2            -8.5122848001        6.1631510329        5.7301614281  CLST      95              1.0000000000
