* INITIAL
*  DATE:     6/28/26      1:56: 4      CREATED BY USER: boittier
*
       460  EXT
         1         1  DCM       C               3.3887678056        8.2862793997        5.9748168566  CLST      1               1.0000000000
         2         1  DCM       H1              2.6973410593        8.2060962019        6.8400920706  CLST      1               1.0000000000
         3         1  DCM       H2              2.9980994045        8.9958292919        5.2163633006  CLST      1               1.0000000000
         4         1  DCM       CL1             4.9749270836        8.8744695448        6.5530260785  CLST      1               1.0000000000
         5         1  DCM       CL2             3.5722910253        6.6732917372        5.2254528569  CLST      1               1.0000000000
         6         2  DCM       C              -8.8663232005       -2.6715497996        3.8752831620  CLST      2               1.0000000000
         7         2  DCM       H1             -9.8190650480       -2.1117691715        3.7626068911  CLST      2               1.0000000000
         8         2  DCM       H2             -8.8970114506       -3.3453115871        4.7574856710  CLST      2               1.0000000000
         9         2  DCM       CL1            -8.5921485935       -3.6517907088        2.4064118529  CLST      2               1.0000000000
        10         2  DCM       CL2            -7.5279684879       -1.5072623337        4.0837340172  CLST      2               1.0000000000
        11         3  DCM       C               9.2690509251        1.2280492100       -8.3304490506  CLST      3               1.0000000000
        12         3  DCM       H1             10.3282962005        0.9863084175       -8.5605015639  CLST      3               1.0000000000
        13         3  DCM       H2              8.9617756045        0.7814515612       -7.3619176603  CLST      3               1.0000000000
        14         3  DCM       CL1             9.0827304173        3.0035432838       -8.2400636255  CLST      3               1.0000000000
        15         3  DCM       CL2             8.2265655756        0.5770212677       -9.6281125241  CLST      3               1.0000000000
        16         4  DCM       C              -6.8528328034        8.8660907982        5.4600457534  CLST      4               1.0000000000
        17         4  DCM       H1             -7.9608383787        8.7867833887        5.4644015402  CLST      4               1.0000000000
        18         4  DCM       H2             -6.5260641814        9.9111069260        5.6448249513  CLST      4               1.0000000000
        19         4  DCM       CL1            -6.1890418179        7.8141000457        6.7447095785  CLST      4               1.0000000000
        20         4  DCM       CL2            -6.2397376655        8.3397417432        3.8651818847  CLST      4               1.0000000000
        21         5  DCM       C               6.0356960272       -3.3359783306        4.8749830990  CLST      5               1.0000000000
        22         5  DCM       H1              6.2511741842       -3.9044369975        5.8053564948  CLST      5               1.0000000000
        23         5  DCM       H2              6.9727314558       -3.0229971570        4.3701056164  CLST      5               1.0000000000
        24         5  DCM       CL1             5.0993794814       -4.3793405272        3.7676817418  CLST      5               1.0000000000
        25         5  DCM       CL2             5.0848951726       -1.8790771884        5.2855472123  CLST      5               1.0000000000
        26         6  DCM       C              12.4782165041       -2.7755278361       -0.5477813743  CLST      6               1.0000000000
        27         6  DCM       H1             13.1037805974       -3.3216591985        0.1883126651  CLST      6               1.0000000000
        28         6  DCM       H2             13.0789560984       -2.0231520470       -1.1018041678  CLST      6               1.0000000000
        29         6  DCM       CL1            11.8042124171       -3.9546673514       -1.7092967558  CLST      6               1.0000000000
        30         6  DCM       CL2            11.1563184192       -1.9398465479        0.3208501779  CLST      6               1.0000000000
        31         7  DCM       C              -5.1185099387        2.7837456546        5.3532902352  CLST      7               1.0000000000
        32         7  DCM       H1             -4.0996749459        3.2147309653        5.4105843229  CLST      7               1.0000000000
        33         7  DCM       H2             -5.5536142205        2.9243569343        4.3417827630  CLST      7               1.0000000000
        34         7  DCM       CL1            -5.0221216341        1.0341718696        5.7099046935  CLST      7               1.0000000000
        35         7  DCM       CL2            -6.1523518585        3.6081948399        6.5566091652  CLST      7               1.0000000000
        36         8  DCM       C             -16.7149474044        4.8139969042        5.8732100367  CLST      8               1.0000000000
        37         8  DCM       H1            -17.6199630671        4.6915718463        5.2415364291  CLST      8               1.0000000000
        38         8  DCM       H2            -15.8048266378        4.4781886567        5.3342683417  CLST      8               1.0000000000
        39         8  DCM       CL1           -16.5281182558        6.5390140426        6.3020187859  CLST      8               1.0000000000
        40         8  DCM       CL2           -16.9008617193        3.8363730570        7.3578953066  CLST      8               1.0000000000
        41         9  DCM       C               1.4473188667       -7.7273925102        2.9950282704  CLST      9               1.0000000000
        42         9  DCM       H1              0.9863220239       -7.9532218404        3.9775394753  CLST      9               1.0000000000
        43         9  DCM       H2              0.7521520936       -7.9719166893        2.1633855344  CLST      9               1.0000000000
        44         9  DCM       CL1             1.8565990957       -5.9908788993        2.9301230096  CLST      9               1.0000000000
        45         9  DCM       CL2             2.9277017705       -8.7036291213        2.8120529669  CLST      9               1.0000000000
        46        10  DCM       C               6.0568156009       -7.4114213249        1.5242801279  CLST      10              1.0000000000
        47        10  DCM       H1              6.9246938493       -6.7636775798        1.7609112259  CLST      10              1.0000000000
        48        10  DCM       H2              5.6746271053       -7.9102700318        2.4385392577  CLST      10              1.0000000000
        49        10  DCM       CL1             4.7572227691       -6.4094026780        0.8172074593  CLST      10              1.0000000000
        50        10  DCM       CL2             6.5679360974       -8.6573908832        0.3510030237  CLST      10              1.0000000000
        51        11  DCM       C               6.3329727036        7.8042325509       -5.5542136355  CLST      11              1.0000000000
        52        11  DCM       H1              6.4429067142        8.5289272134       -6.3900051812  CLST      11              1.0000000000
        53        11  DCM       H2              5.2681266564        7.5459443361       -5.3877270579  CLST      11              1.0000000000
        54        11  DCM       CL1             7.2370446225        6.3160720186       -5.9555039883  CLST      11              1.0000000000
        55        11  DCM       CL2             6.9950506572        8.5340145647       -4.0633181527  CLST      11              1.0000000000
        56        12  DCM       C              -1.1119264598        0.0685062376        0.6533969854  CLST      12              1.0000000000
        57        12  DCM       H1             -0.7903734651       -0.9840257268        0.4896002672  CLST      12              1.0000000000
        58        12  DCM       H2             -1.7807591299        0.4087320513       -0.1574332261  CLST      12              1.0000000000
        59        12  DCM       CL1            -1.9925623367        0.1740389564        2.2014404237  CLST      12              1.0000000000
        60        12  DCM       CL2             0.3350945013        1.1111562132        0.6906152091  CLST      12              1.0000000000
        61        13  DCM       C              -0.6752683646        2.9701570911       -2.1954584161  CLST      13              1.0000000000
        62        13  DCM       H1              0.0136503294        2.1214469245       -2.3830204593  CLST      13              1.0000000000
        63        13  DCM       H2             -0.4298556922        3.4701500151       -1.2355723607  CLST      13              1.0000000000
        64        13  DCM       CL1            -0.5122310036        4.1529915433       -3.5250232565  CLST      13              1.0000000000
        65        13  DCM       CL2            -2.3542529204        2.3579335627       -2.1283777884  CLST      13              1.0000000000
        66        14  DCM       C              -9.9360320251       -4.0360028227       -7.3313640549  CLST      14              1.0000000000
        67        14  DCM       H1            -10.0064289868       -3.9663578977       -6.2254597219  CLST      14              1.0000000000
        68        14  DCM       H2             -9.1864598570       -3.3214397171       -7.7284659129  CLST      14              1.0000000000
        69        14  DCM       CL1            -9.4513175623       -5.6939597672       -7.7825280388  CLST      14              1.0000000000
        70        14  DCM       CL2           -11.5279864613       -3.6556509485       -8.0460941606  CLST      14              1.0000000000
        71        15  DCM       C             -15.3723613011        2.7782480169        2.1475998268  CLST      15              1.0000000000
        72        15  DCM       H1            -16.2414214839        2.5455387449        1.4964559182  CLST      15              1.0000000000
        73        15  DCM       H2            -14.4238830766        2.4258272252        1.6888914712  CLST      15              1.0000000000
        74        15  DCM       CL1           -15.2822690351        4.5479333681        2.3878017538  CLST      15              1.0000000000
        75        15  DCM       CL2           -15.5929735273        1.9640800793        3.7236286874  CLST      15              1.0000000000
        76        16  DCM       C              -0.1082591938       -7.5724727462        7.6081260375  CLST      16              1.0000000000
        77        16  DCM       H1             -0.1088430658       -6.6672927358        6.9669882865  CLST      16              1.0000000000
        78        16  DCM       H2             -1.0444959757       -7.6370356541        8.2021780109  CLST      16              1.0000000000
        79        16  DCM       CL1             0.0280589396       -9.0179337266        6.5674268341  CLST      16              1.0000000000
        80        16  DCM       CL2             1.2866988528       -7.4957824454        8.7227302551  CLST      16              1.0000000000
        81        17  DCM       C              -6.7435607863       -6.1703137919       -1.7238527666  CLST      17              1.0000000000
        82        17  DCM       H1             -7.6237725779       -5.5929518278       -2.0770013678  CLST      17              1.0000000000
        83        17  DCM       H2             -6.8460783048       -6.4379475237       -0.6509320411  CLST      17              1.0000000000
        84        17  DCM       CL1            -6.6007902573       -7.6649791074       -2.6942109579  CLST      17              1.0000000000
        85        17  DCM       CL2            -5.2762553072       -5.1746439678       -1.9348528906  CLST      17              1.0000000000
        86        18  DCM       C              -1.4388270119        0.4000565637       -5.2422497100  CLST      18              1.0000000000
        87        18  DCM       H1             -0.7863278380        0.7186704246       -4.4030014282  CLST      18              1.0000000000
        88        18  DCM       H2             -2.0888168135       -0.4479536172       -4.9440631849  CLST      18              1.0000000000
        89        18  DCM       CL1            -2.4785137573        1.7658942685       -5.7277563814  CLST      18              1.0000000000
        90        18  DCM       CL2            -0.4194295886       -0.1112177280       -6.6163835549  CLST      18              1.0000000000
        91        19  DCM       C              -7.2079461700       -8.2690232480       -6.2782763971  CLST      19              1.0000000000
        92        19  DCM       H1             -6.5069751367       -8.9438036582       -5.7434467061  CLST      19              1.0000000000
        93        19  DCM       H2             -7.4491560782       -7.3761416325       -5.6653045260  CLST      19              1.0000000000
        94        19  DCM       CL1            -6.4539563085       -7.7354177272       -7.8083829320  CLST      19              1.0000000000
        95        19  DCM       CL2            -8.7209176187       -9.1559756748       -6.6230797554  CLST      19              1.0000000000
        96        20  DCM       C               7.0729525144       -1.5910632386       -6.4051087885  CLST      20              1.0000000000
        97        20  DCM       H1              6.8371981231       -2.2765605789       -5.5645675186  CLST      20              1.0000000000
        98        20  DCM       H2              7.5694782183       -0.6697158483       -6.0354052069  CLST      20              1.0000000000
        99        20  DCM       CL1             8.1617272410       -2.4285516105       -7.5480562867  CLST      20              1.0000000000
       100        20  DCM       CL2             5.5563731157       -1.1432483602       -7.2366860594  CLST      20              1.0000000000
       101        21  DCM       C              -9.5327859277       -0.5509749844       -5.4040675640  CLST      21              1.0000000000
       102        21  DCM       H1             -9.5299023928        0.4655223368       -4.9566950901  CLST      21              1.0000000000
       103        21  DCM       H2             -8.5855799844       -1.0864150218       -5.1840719438  CLST      21              1.0000000000
       104        21  DCM       CL1           -10.8999082504       -1.4821810574       -4.7287172995  CLST      21              1.0000000000
       105        21  DCM       CL2            -9.7232393898       -0.4061165665       -7.1747651966  CLST      21              1.0000000000
       106        22  DCM       C              -2.9527071356        5.9087437541        6.5309960521  CLST      22              1.0000000000
       107        22  DCM       H1             -3.7587095346        5.5214438525        7.1900761810  CLST      22              1.0000000000
       108        22  DCM       H2             -2.0847170430        5.2165174524        6.5105614845  CLST      22              1.0000000000
       109        22  DCM       CL1            -3.5968163966        6.0895567456        4.8732918836  CLST      22              1.0000000000
       110        22  DCM       CL2            -2.4145354251        7.4975028054        7.1475657777  CLST      22              1.0000000000
       111        23  DCM       C              -1.8874234845        3.7848416622        2.6151567183  CLST      23              1.0000000000
       112        23  DCM       H1             -1.6691880447        4.8730147596        2.5681568023  CLST      23              1.0000000000
       113        23  DCM       H2             -1.2578636066        3.2152591133        1.9022502419  CLST      23              1.0000000000
       114        23  DCM       CL1            -1.5686003705        3.1906834267        4.2670084624  CLST      23              1.0000000000
       115        23  DCM       CL2            -3.5972777564        3.5194558401        2.1942340988  CLST      23              1.0000000000
       116        24  DCM       C              -0.1598613718       10.5572189208       -3.4535476034  CLST      24              1.0000000000
       117        24  DCM       H1              0.7245555940       11.0604324572       -3.8988645404  CLST      24              1.0000000000
       118        24  DCM       H2             -1.0681411049       11.1886589656       -3.5470036861  CLST      24              1.0000000000
       119        24  DCM       CL1            -0.4384268210        9.0095031315       -4.3064056559  CLST      24              1.0000000000
       120        24  DCM       CL2             0.1627704887       10.2543241873       -1.7208840060  CLST      24              1.0000000000
       121        25  DCM       C              -0.8658238588        1.4943594820       -9.9620277868  CLST      25              1.0000000000
       122        25  DCM       H1             -0.8722106197        2.5902865929      -10.1384444204  CLST      25              1.0000000000
       123        25  DCM       H2             -1.3379673932        1.2505372864       -8.9875775467  CLST      25              1.0000000000
       124        25  DCM       CL1            -1.7793459822        0.6871543631      -11.2682943464  CLST      25              1.0000000000
       125        25  DCM       CL2             0.8249835501        0.9155203727       -9.9553059956  CLST      25              1.0000000000
       126        26  DCM       C               1.4887870560        5.6345732698       11.6137303677  CLST      26              1.0000000000
       127        26  DCM       H1              0.7744537540        6.0085788503       12.3771877263  CLST      26              1.0000000000
       128        26  DCM       H2              1.6340456589        6.3793306405       10.8022938673  CLST      26              1.0000000000
       129        26  DCM       CL1             3.0618564173        5.3125100439       12.4000726539  CLST      26              1.0000000000
       130        26  DCM       CL2             0.8458387034        4.1233373172       10.9084820794  CLST      26              1.0000000000
       131        27  DCM       C              -8.9140688958        5.7492357821        5.0378693711  CLST      27              1.0000000000
       132        27  DCM       H1             -7.8239644509        5.9542939378        4.9874005676  CLST      27              1.0000000000
       133        27  DCM       H2             -9.1185620267        4.6690443318        4.9000320662  CLST      27              1.0000000000
       134        27  DCM       CL1            -9.5305676086        6.2594039974        6.6354061857  CLST      27              1.0000000000
       135        27  DCM       CL2            -9.7446757814        6.6602834779        3.7442972203  CLST      27              1.0000000000
       136        28  DCM       C              -4.3738930852       -2.8727159723        2.7266262642  CLST      28              1.0000000000
       137        28  DCM       H1             -3.2866463476       -2.7686321505        2.5242884528  CLST      28              1.0000000000
       138        28  DCM       H2             -4.8694726119       -1.8807414827        2.7482326905  CLST      28              1.0000000000
       139        28  DCM       CL1            -5.1200666498       -3.8693058863        1.4455934686  CLST      28              1.0000000000
       140        28  DCM       CL2            -4.6020704596       -3.6713632615        4.3075743784  CLST      28              1.0000000000
       141        29  DCM       C               1.8898127682       -2.0143138417        2.2519850401  CLST      29              1.0000000000
       142        29  DCM       H1              1.9492408300       -1.5732719396        1.2339051415  CLST      29              1.0000000000
       143        29  DCM       H2              2.6787829445       -2.7798168831        2.4022182996  CLST      29              1.0000000000
       144        29  DCM       CL1             2.1035300567       -0.7088481054        3.4521987999  CLST      29              1.0000000000
       145        29  DCM       CL2             0.2890408682       -2.7808318676        2.4676296278  CLST      29              1.0000000000
       146        30  DCM       C              -5.0674612208       -0.0436191976       -3.8505723251  CLST      30              1.0000000000
       147        30  DCM       H1             -4.8307845951        0.2062876974       -4.9053427367  CLST      30              1.0000000000
       148        30  DCM       H2             -4.2843572698        0.3388394786       -3.1628704113  CLST      30              1.0000000000
       149        30  DCM       CL1            -6.6378420656        0.6879180441       -3.4128497333  CLST      30              1.0000000000
       150        30  DCM       CL2            -5.1637404623       -1.8181705306       -3.6877452599  CLST      30              1.0000000000
       151        31  DCM       C               9.0898557284        1.5881458461       -0.2003492498  CLST      31              1.0000000000
       152        31  DCM       H1              9.8703045994        2.2766528902       -0.5905885986  CLST      31              1.0000000000
       153        31  DCM       H2              9.4431045626        0.5359886197       -0.2094401605  CLST      31              1.0000000000
       154        31  DCM       CL1             7.6357281209        1.7190901881       -1.2295333606  CLST      31              1.0000000000
       155        31  DCM       CL2             8.6892809056        2.0479803535        1.4796283697  CLST      31              1.0000000000
       156        32  DCM       C               4.1084548011        2.5055953451       -1.5331352472  CLST      32              1.0000000000
       157        32  DCM       H1              4.1129811411        1.8667081283       -2.4400299830  CLST      32              1.0000000000
       158        32  DCM       H2              5.0750877930        3.0358628348       -1.4163498357  CLST      32              1.0000000000
       159        32  DCM       CL1             2.8057934990        3.7161700075       -1.6781174232  CLST      32              1.0000000000
       160        32  DCM       CL2             3.8237025082        1.4826645654       -0.0961835120  CLST      32              1.0000000000
       161        33  DCM       C               2.0328679042       -3.6891448032        5.7997164892  CLST      33              1.0000000000
       162        33  DCM       H1              2.4162349594       -3.6182925370        4.7610934250  CLST      33              1.0000000000
       163        33  DCM       H2              2.1263346329       -2.7158823381        6.3238763611  CLST      33              1.0000000000
       164        33  DCM       CL1             0.3144163630       -4.1663119662        5.7505971444  CLST      33              1.0000000000
       165        33  DCM       CL2             2.9742110290       -4.9204844955        6.6845042598  CLST      33              1.0000000000
       166        34  DCM       C               1.2455259345       -5.1669611820       -0.5452548523  CLST      34              1.0000000000
       167        34  DCM       H1              0.5022989776       -5.1332346856        0.2781592499  CLST      34              1.0000000000
       168        34  DCM       H2              2.1607427001       -5.7122141909       -0.2328515716  CLST      34              1.0000000000
       169        34  DCM       CL1             0.5263735989       -6.0046316207       -1.9489447124  CLST      34              1.0000000000
       170        34  DCM       CL2             1.6854043355       -3.4974412577       -1.0026321514  CLST      34              1.0000000000
       171        35  DCM       C               5.2699529583        2.2927721118       -8.5542634550  CLST      35              1.0000000000
       172        35  DCM       H1              5.3207060413        1.9010814386       -9.5921931779  CLST      35              1.0000000000
       173        35  DCM       H2              6.0406606182        1.8176302946       -7.9118497430  CLST      35              1.0000000000
       174        35  DCM       CL1             5.5473491304        4.0577313109       -8.5808224538  CLST      35              1.0000000000
       175        35  DCM       CL2             3.6548797491        1.9394370459       -7.8774119232  CLST      35              1.0000000000
       176        36  DCM       C              -2.9959812352       -4.3699034564       12.5222365237  CLST      36              1.0000000000
       177        36  DCM       H1             -1.9174301213       -4.1525080033       12.3694340192  CLST      36              1.0000000000
       178        36  DCM       H2             -3.2536426509       -4.3712391673       13.6023331201  CLST      36              1.0000000000
       179        36  DCM       CL1            -3.9629593142       -3.1138082213       11.6958225119  CLST      36              1.0000000000
       180        36  DCM       CL2            -3.3714796319       -5.9767040032       11.8324829116  CLST      36              1.0000000000
       181        37  DCM       C               7.5228834428       -5.0005313644       -1.3993346159  CLST      37              1.0000000000
       182        37  DCM       H1              6.8952760783       -5.1831566665       -0.5042823624  CLST      37              1.0000000000
       183        37  DCM       H2              6.9205040108       -5.0517274167       -2.3304187150  CLST      37              1.0000000000
       184        37  DCM       CL1             8.2501119590       -3.3752129600       -1.2604669212  CLST      37              1.0000000000
       185        37  DCM       CL2             8.8054330582       -6.2421868192       -1.4711882458  CLST      37              1.0000000000
       186        38  DCM       C               1.0732805697        4.4420262349        6.6610165932  CLST      38              1.0000000000
       187        38  DCM       H1              0.6528255827        4.5985949478        5.6465810870  CLST      38              1.0000000000
       188        38  DCM       H2              2.1524403556        4.1866399721        6.6045154275  CLST      38              1.0000000000
       189        38  DCM       CL1             0.1952479649        3.1028760786        7.4502678198  CLST      38              1.0000000000
       190        38  DCM       CL2             0.8690232930        5.9388687435        7.6154359858  CLST      38              1.0000000000
       191        39  DCM       C               6.7047769364       10.0756429967        3.1801787650  CLST      39              1.0000000000
       192        39  DCM       H1              7.4952849882       10.0982091580        2.4008211090  CLST      39              1.0000000000
       193        39  DCM       H2              7.1318197711       10.2445245445        4.1915798346  CLST      39              1.0000000000
       194        39  DCM       CL1             5.5063459416       11.3547276792        2.8330244217  CLST      39              1.0000000000
       195        39  DCM       CL2             5.9078904362        8.4783053237        3.1477346464  CLST      39              1.0000000000
       196        40  DCM       C              -1.7049368910        7.0421433775       -1.3799260382  CLST      40              1.0000000000
       197        40  DCM       H1             -1.3699355454        6.7278179694       -2.3903460266  CLST      40              1.0000000000
       198        40  DCM       H2             -0.8601970973        7.4659772665       -0.7969466442  CLST      40              1.0000000000
       199        40  DCM       CL1            -2.9765986792        8.2858498866       -1.5514932519  CLST      40              1.0000000000
       200        40  DCM       CL2            -2.3621412354        5.6281018579       -0.5073407634  CLST      40              1.0000000000
       201        41  DCM       C               3.4509868441        7.7647955258       -2.7278982691  CLST      41              1.0000000000
       202        41  DCM       H1              4.0103011283        8.0511154766       -1.8144090480  CLST      41              1.0000000000
       203        41  DCM       H2              4.0023140759        6.9929611656       -3.3012224462  CLST      41              1.0000000000
       204        41  DCM       CL1             1.8559000053        7.1063500475       -2.2598405887  CLST      41              1.0000000000
       205        41  DCM       CL2             3.2439183046        9.2097188164       -3.7582740983  CLST      41              1.0000000000
       206        42  DCM       C              -2.0609850611       -3.2215448994       -1.9974125101  CLST      42              1.0000000000
       207        42  DCM       H1             -1.3353999772       -3.8934384107       -2.4999186069  CLST      42              1.0000000000
       208        42  DCM       H2             -3.0891311641       -3.3995512945       -2.3718651245  CLST      42              1.0000000000
       209        42  DCM       CL1            -2.0194836249       -3.5268694354       -0.2396655018  CLST      42              1.0000000000
       210        42  DCM       CL2            -1.6094786431       -1.5268341814       -2.3291103254  CLST      42              1.0000000000
       211        43  DCM       C              -6.5354096033        1.4244096561       -7.1031236604  CLST      43              1.0000000000
       212        43  DCM       H1             -6.7156311241        0.4695364612       -6.5660939350  CLST      43              1.0000000000
       213        43  DCM       H2             -5.5111543274        1.8036281782       -6.9080749901  CLST      43              1.0000000000
       214        43  DCM       CL1            -6.7371403515        1.1460797776       -8.8571667200  CLST      43              1.0000000000
       215        43  DCM       CL2            -7.7234151264        2.6340493211       -6.5394630235  CLST      43              1.0000000000
       216        44  DCM       C              -6.1253345731       -4.0540929028       -6.3983198500  CLST      44              1.0000000000
       217        44  DCM       H1             -6.2696941824       -4.7654056791       -7.2382991872  CLST      44              1.0000000000
       218        44  DCM       H2             -5.0681962731       -4.0470087498       -6.0603242744  CLST      44              1.0000000000
       219        44  DCM       CL1            -6.5688192102       -2.4116882084       -6.9382263376  CLST      44              1.0000000000
       220        44  DCM       CL2            -7.1697372107       -4.5382452458       -5.0337635564  CLST      44              1.0000000000
       221        45  DCM       C              12.9319126203       -0.3800262976        5.8807303344  CLST      45              1.0000000000
       222        45  DCM       H1             13.9759099743       -0.6644362015        6.1305651350  CLST      45              1.0000000000
       223        45  DCM       H2             12.4513234845        0.1574235598        6.7258717311  CLST      45              1.0000000000
       224        45  DCM       CL1            12.9456525829        0.6883209119        4.4468061271  CLST      45              1.0000000000
       225        45  DCM       CL2            11.9936565551       -1.8601457736        5.5235588149  CLST      45              1.0000000000
       226        46  DCM       C               4.4310347784       -7.7534523648       -2.6592450707  CLST      46              1.0000000000
       227        46  DCM       H1              4.3760769255       -8.0594518585       -1.5948793999  CLST      46              1.0000000000
       228        46  DCM       H2              3.6883182065       -8.3050654344       -3.2727901026  CLST      46              1.0000000000
       229        46  DCM       CL1             4.0933723516       -6.0041359157       -2.7698880935  CLST      46              1.0000000000
       230        46  DCM       CL2             6.0730841641       -8.0992728898       -3.2733053942  CLST      46              1.0000000000
       231        47  DCM       C              -2.3389267639       -6.0066118996        2.5433903067  CLST      47              1.0000000000
       232        47  DCM       H1             -3.4491451654       -6.0432831679        2.5583025278  CLST      47              1.0000000000
       233        47  DCM       H2             -1.9748210898       -4.9607513019        2.4657459060  CLST      47              1.0000000000
       234        47  DCM       CL1            -1.7217152016       -6.7229249465        4.0579669615  CLST      47              1.0000000000
       235        47  DCM       CL2            -1.7478888961       -6.9411849301        1.1390703406  CLST      47              1.0000000000
       236        48  DCM       C              -8.2412312403       -3.6384288916      -10.7784798544  CLST      48              1.0000000000
       237        48  DCM       H1             -8.1885471520       -3.6545636192      -11.8875836088  CLST      48              1.0000000000
       238        48  DCM       H2             -9.1797599006       -4.1097854511      -10.4166351328  CLST      48              1.0000000000
       239        48  DCM       CL1            -6.8436834158       -4.5354524810      -10.1177115594  CLST      48              1.0000000000
       240        48  DCM       CL2            -8.1881770178       -1.9420962134      -10.2194248799  CLST      48              1.0000000000
       241        49  DCM       C               2.3018035116        4.3030045908        2.1774271172  CLST      49              1.0000000000
       242        49  DCM       H1              2.6323410335        5.1807214217        2.7673443541  CLST      49              1.0000000000
       243        49  DCM       H2              3.1282829996        3.9052217995        1.5501848853  CLST      49              1.0000000000
       244        49  DCM       CL1             1.7668048648        3.0245206328        3.3031865343  CLST      49              1.0000000000
       245        49  DCM       CL2             0.9578278435        4.7954353283        1.1080050315  CLST      49              1.0000000000
       246        50  DCM       C              -0.9742330104        8.3267500220        3.6650935761  CLST      50              1.0000000000
       247        50  DCM       H1             -1.7719741362        8.4165389065        4.4316176311  CLST      50              1.0000000000
       248        50  DCM       H2             -0.3621194516        9.2516909227        3.6188793503  CLST      50              1.0000000000
       249        50  DCM       CL1            -1.7342290781        8.0527159316        2.0734055925  CLST      50              1.0000000000
       250        50  DCM       CL2             0.0807213537        6.9430383918        4.0726985324  CLST      50              1.0000000000
       251        51  DCM       C             -11.5734764526       -6.5953305160       -4.8105307435  CLST      51              1.0000000000
       252        51  DCM       H1            -11.5052764840       -6.7861881595       -5.9025567865  CLST      51              1.0000000000
       253        51  DCM       H2            -12.2111545628       -7.3554119118       -4.3118561712  CLST      51              1.0000000000
       254        51  DCM       CL1            -9.9334414540       -6.6584195290       -4.1031608370  CLST      51              1.0000000000
       255        51  DCM       CL2           -12.2837328568       -4.9767580237       -4.5449963560  CLST      51              1.0000000000
       256        52  DCM       C               2.1826978964      -10.5297687573       -1.3456408560  CLST      52              1.0000000000
       257        52  DCM       H1              2.0077390210      -10.4284786167       -2.4373884853  CLST      52              1.0000000000
       258        52  DCM       H2              1.5491975238      -11.3328565613       -0.9148921454  CLST      52              1.0000000000
       259        52  DCM       CL1             3.9008232383      -10.9318224288       -1.0606430128  CLST      52              1.0000000000
       260        52  DCM       CL2             1.7828928864       -8.9830608525       -0.5451431245  CLST      52              1.0000000000
       261        53  DCM       C               3.2257341248        5.3639806715       -6.2887391520  CLST      53              1.0000000000
       262        53  DCM       H1              2.7997990643        4.5317947880       -6.8863917552  CLST      53              1.0000000000
       263        53  DCM       H2              3.9070096601        5.9881437776       -6.9032228746  CLST      53              1.0000000000
       264        53  DCM       CL1             1.8918500807        6.3797230167       -5.6822929553  CLST      53              1.0000000000
       265        53  DCM       CL2             4.1366701628        4.6835977913       -4.9151094436  CLST      53              1.0000000000
       266        54  DCM       C              14.3394023523       -2.2193834665        2.7476719037  CLST      54              1.0000000000
       267        54  DCM       H1             14.7147371743       -1.9020708292        3.7430851725  CLST      54              1.0000000000
       268        54  DCM       H2             13.2333703192       -2.3228174077        2.7536816038  CLST      54              1.0000000000
       269        54  DCM       CL1            14.7992072593       -0.9901698832        1.5341456301  CLST      54              1.0000000000
       270        54  DCM       CL2            15.0732636227       -3.7940115607        2.3267691407  CLST      54              1.0000000000
       271        55  DCM       C               4.7527006853      -11.9206810343        2.4107449383  CLST      55              1.0000000000
       272        55  DCM       H1              5.2693422866      -12.5816878240        1.6830703647  CLST      55              1.0000000000
       273        55  DCM       H2              4.0115054952      -11.2717791726        1.8991226057  CLST      55              1.0000000000
       274        55  DCM       CL1             3.9054466358      -12.9293566057        3.6192473609  CLST      55              1.0000000000
       275        55  DCM       CL2             5.9633780099      -10.8883076465        3.2248113271  CLST      55              1.0000000000
       276        56  DCM       C              -0.4965245813       -2.9689352589        8.9854270148  CLST      56              1.0000000000
       277        56  DCM       H1             -1.2551342070       -2.8381698798        8.1848278067  CLST      56              1.0000000000
       278        56  DCM       H2              0.5303994057       -2.8624322158        8.5786717307  CLST      56              1.0000000000
       279        56  DCM       CL1            -0.7545844854       -1.7268712902       10.2433087369  CLST      56              1.0000000000
       280        56  DCM       CL2            -0.6685671710       -4.5976752122        9.6970181377  CLST      56              1.0000000000
       281        57  DCM       C              10.1451253218       -0.8911824597       -3.4585143610  CLST      57              1.0000000000
       282        57  DCM       H1              9.1063775985       -0.5204572894       -3.3242238729  CLST      57              1.0000000000
       283        57  DCM       H2             10.2587133344       -1.9101743241       -3.0342377763  CLST      57              1.0000000000
       284        57  DCM       CL1            11.2748810971        0.2158580888       -2.6274226895  CLST      57              1.0000000000
       285        57  DCM       CL2            10.5315199777       -0.9422147474       -5.2027913233  CLST      57              1.0000000000
       286        58  DCM       C              -4.1925859966       -4.4999598807        8.1416879996  CLST      58              1.0000000000
       287        58  DCM       H1             -5.1931995390       -4.9092800451        7.8892025863  CLST      58              1.0000000000
       288        58  DCM       H2             -3.9239393034       -4.7201120495        9.1954859269  CLST      58              1.0000000000
       289        58  DCM       CL1            -2.9720130488       -5.2459800118        7.0709953324  CLST      58              1.0000000000
       290        58  DCM       CL2            -4.2115532816       -2.7274955871        7.9062419566  CLST      58              1.0000000000
       291        59  DCM       C              -7.3773528914        4.1653910672        0.8730202812  CLST      59              1.0000000000
       292        59  DCM       H1             -7.6171996235        3.1060136385        1.1027604612  CLST      59              1.0000000000
       293        59  DCM       H2             -8.2807957143        4.7136397045        0.5304756410  CLST      59              1.0000000000
       294        59  DCM       CL1            -6.7567388426        4.9448017263        2.3555711251  CLST      59              1.0000000000
       295        59  DCM       CL2            -6.1368343638        4.2209599748       -0.4151997869  CLST      59              1.0000000000
       296        60  DCM       C             -11.7045712521        3.0506374291        3.3396209404  CLST      60              1.0000000000
       297        60  DCM       H1            -12.7019830614        3.5354779886        3.3192067576  CLST      60              1.0000000000
       298        60  DCM       H2            -11.1088513600        3.4163907800        4.2018709062  CLST      60              1.0000000000
       299        60  DCM       CL1           -11.9207391900        1.2821897684        3.4860260177  CLST      60              1.0000000000
       300        60  DCM       CL2           -10.8378206948        3.4352279731        1.8253565656  CLST      60              1.0000000000
       301        61  DCM       C               4.0862271882       -2.8413295240        9.5029841906  CLST      61              1.0000000000
       302        61  DCM       H1              4.6531768707       -3.3559359807        8.6986482776  CLST      61              1.0000000000
       303        61  DCM       H2              4.7648929576       -2.4820066699       10.3050225325  CLST      61              1.0000000000
       304        61  DCM       CL1             3.2252664006       -1.4415313252        8.8006110486  CLST      61              1.0000000000
       305        61  DCM       CL2             2.9096762593       -3.9865238714       10.2100318595  CLST      61              1.0000000000
       306        62  DCM       C              -3.8035422514       -6.8868243103       -4.9700198728  CLST      62              1.0000000000
       307        62  DCM       H1             -4.6996793156       -6.2792346728       -4.7232981744  CLST      62              1.0000000000
       308        62  DCM       H2             -4.0241345275       -7.9722963059       -4.8899673375  CLST      62              1.0000000000
       309        62  DCM       CL1            -2.4930824311       -6.4754272809       -3.8281555861  CLST      62              1.0000000000
       310        62  DCM       CL2            -3.2887951103       -6.5163624525       -6.6405153016  CLST      62              1.0000000000
       311        63  DCM       C               2.2275990187        4.4653871784      -10.3049731248  CLST      63              1.0000000000
       312        63  DCM       H1              3.1636246137        4.1226860266      -10.7943719692  CLST      63              1.0000000000
       313        63  DCM       H2              1.9423156051        3.7869127453       -9.4744483157  CLST      63              1.0000000000
       314        63  DCM       CL1             2.4773646921        6.1099793870       -9.6514988157  CLST      63              1.0000000000
       315        63  DCM       CL2             0.9103030592        4.4865516118      -11.5121184474  CLST      63              1.0000000000
       316        64  DCM       C              -8.7387268633       -2.4467939589       -2.1422712048  CLST      64              1.0000000000
       317        64  DCM       H1             -8.2791043748       -2.5886615779       -3.1421083688  CLST      64              1.0000000000
       318        64  DCM       H2             -9.2662495823       -1.4722401313       -2.0789365053  CLST      64              1.0000000000
       319        64  DCM       CL1            -9.9123986522       -3.7598617575       -1.8440686061  CLST      64              1.0000000000
       320        64  DCM       CL2            -7.4553896040       -2.4936268649       -0.9047317303  CLST      64              1.0000000000
       321        65  DCM       C              10.1257517165       -5.2404753164        1.6917020206  CLST      65              1.0000000000
       322        65  DCM       H1             10.0512995375       -6.3460765076        1.6197236377  CLST      65              1.0000000000
       323        65  DCM       H2             10.2810484196       -4.7859892533        0.6912074435  CLST      65              1.0000000000
       324        65  DCM       CL1             8.6119395880       -4.5970759624        2.3865630703  CLST      65              1.0000000000
       325        65  DCM       CL2            11.5039304712       -4.8110291711        2.7447895433  CLST      65              1.0000000000
       326        66  DCM       C               2.3984284059        0.2012314497       -4.2544896721  CLST      66              1.0000000000
       327        66  DCM       H1              1.9855258148       -0.5010675027       -5.0084628260  CLST      66              1.0000000000
       328        66  DCM       H2              3.5027740665        0.1106217460       -4.1954876809  CLST      66              1.0000000000
       329        66  DCM       CL1             1.9823492087        1.8732413748       -4.7188495842  CLST      66              1.0000000000
       330        66  DCM       CL2             1.6971263957       -0.1752707638       -2.6548425287  CLST      66              1.0000000000
       331        67  DCM       C             -13.0534031475        4.7290619838        6.8942008833  CLST      67              1.0000000000
       332        67  DCM       H1            -12.0751860386        4.8071085979        7.4140568996  CLST      67              1.0000000000
       333        67  DCM       H2            -13.8767191136        5.1177241680        7.5306762913  CLST      67              1.0000000000
       334        67  DCM       CL1           -12.9890200820        5.6813547201        5.3826823317  CLST      67              1.0000000000
       335        67  DCM       CL2           -13.3733431793        3.0120716648        6.5148995916  CLST      67              1.0000000000
       336        68  DCM       C               4.2201271515        4.5628259055        8.9673172075  CLST      68              1.0000000000
       337        68  DCM       H1              3.1646366001        4.2178335325        8.9711740945  CLST      68              1.0000000000
       338        68  DCM       H2              4.7744428632        4.1548055559        9.8391350330  CLST      68              1.0000000000
       339        68  DCM       CL1             5.0084320683        4.0109202259        7.4616662485  CLST      68              1.0000000000
       340        68  DCM       CL2             4.2505614842        6.3477534984        9.0438431240  CLST      68              1.0000000000
       341        69  DCM       C               7.5266518128        6.3014848492        6.0322923849  CLST      69              1.0000000000
       342        69  DCM       H1              6.5567075669        6.3240235087        5.4910542119  CLST      69              1.0000000000
       343        69  DCM       H2              7.3696122702        6.3978184810        7.1271115899  CLST      69              1.0000000000
       344        69  DCM       CL1             8.3492610934        4.7514173698        5.6907669227  CLST      69              1.0000000000
       345        69  DCM       CL2             8.5414025679        7.6582845729        5.4631702428  CLST      69              1.0000000000
       346        70  DCM       C              -4.0228446098       -1.8431704538       -9.4327368249  CLST      70              1.0000000000
       347        70  DCM       H1             -3.4886366936       -1.5450614840      -10.3581935965  CLST      70              1.0000000000
       348        70  DCM       H2             -5.1224471003       -1.8602503186       -9.5948639236  CLST      70              1.0000000000
       349        70  DCM       CL1            -3.4798559199       -3.4761436933       -8.9496416606  CLST      70              1.0000000000
       350        70  DCM       CL2            -3.6458440639       -0.6726213675       -8.1358547910  CLST      70              1.0000000000
       351        71  DCM       C               2.1521404692      -15.4225459104        1.3142646936  CLST      71              1.0000000000
       352        71  DCM       H1              2.8517995709      -15.4185179803        2.1766922050  CLST      71              1.0000000000
       353        71  DCM       H2              2.1389490463      -16.4142157708        0.8146974589  CLST      71              1.0000000000
       354        71  DCM       CL1             0.5053452099      -15.0458014333        1.9007174596  CLST      71              1.0000000000
       355        71  DCM       CL2             2.6772079731      -14.1858301137        0.1346422971  CLST      71              1.0000000000
       356        72  DCM       C               5.8312557755        4.8315318861        2.8583961973  CLST      72              1.0000000000
       357        72  DCM       H1              5.0335404241        5.5971243543        2.9471215033  CLST      72              1.0000000000
       358        72  DCM       H2              6.8071547486        5.2368261219        3.1946286540  CLST      72              1.0000000000
       359        72  DCM       CL1             5.4041050383        3.4182695706        3.8638746443  CLST      72              1.0000000000
       360        72  DCM       CL2             5.9654655238        4.3354581639        1.1505880039  CLST      72              1.0000000000
       361        73  DCM       C               7.1421033260        2.8767384559       -4.9743315288  CLST      73              1.0000000000
       362        73  DCM       H1              6.9522042784        3.6259929746       -4.1775441256  CLST      73              1.0000000000
       363        73  DCM       H2              7.1238280290        3.3496341230       -5.9779928306  CLST      73              1.0000000000
       364        73  DCM       CL1             8.7427360981        2.1369059086       -4.7035959344  CLST      73              1.0000000000
       365        73  DCM       CL2             5.8763468860        1.6229024195       -4.9011921724  CLST      73              1.0000000000
       366        74  DCM       C               4.7334824375       -2.3976160712       -2.7378252075  CLST      74              1.0000000000
       367        74  DCM       H1              5.1623319678       -3.3144268591       -2.2828832274  CLST      74              1.0000000000
       368        74  DCM       H2              3.9015327892       -2.0018789773       -2.1180010813  CLST      74              1.0000000000
       369        74  DCM       CL1             6.0082068630       -1.1536850587       -2.8530702003  CLST      74              1.0000000000
       370        74  DCM       CL2             4.1121998166       -2.7905199982       -4.3646158657  CLST      74              1.0000000000
       371        75  DCM       C              -9.2564275256       -0.0281405809        1.0330832350  CLST      75              1.0000000000
       372        75  DCM       H1             -8.3797679868       -0.6847497729        1.2171950945  CLST      75              1.0000000000
       373        75  DCM       H2             -9.4398120375        0.6401207452        1.8986067030  CLST      75              1.0000000000
       374        75  DCM       CL1            -8.9491341278        0.9707394688       -0.4169949364  CLST      75              1.0000000000
       375        75  DCM       CL2           -10.7020449660       -1.0449042785        0.7720407891  CLST      75              1.0000000000
       376        76  DCM       C              -0.7133890941       -3.7781880307       -5.9695277749  CLST      76              1.0000000000
       377        76  DCM       H1             -0.7113977896       -4.8886525711       -5.9900831076  CLST      76              1.0000000000
       378        76  DCM       H2             -0.4501734384       -3.3583226308       -6.9636052778  CLST      76              1.0000000000
       379        76  DCM       CL1             0.4819921456       -3.2177072320       -4.7638662137  CLST      76              1.0000000000
       380        76  DCM       CL2            -2.3458505167       -3.2096830888       -5.5171482664  CLST      76              1.0000000000
       381        77  DCM       C              -8.9045978102        1.2729584506        5.7488294284  CLST      77              1.0000000000
       382        77  DCM       H1             -9.5917974632        0.4250541978        5.5441602018  CLST      77              1.0000000000
       383        77  DCM       H2             -8.0038334039        0.9322916022        6.3023965512  CLST      77              1.0000000000
       384        77  DCM       CL1            -8.3924439235        1.9943827492        4.1948945379  CLST      77              1.0000000000
       385        77  DCM       CL2            -9.7644868114        2.4912092805        6.7333685328  CLST      77              1.0000000000
       386        78  DCM       C               2.1311063455        8.3173208545        1.0564584628  CLST      78              1.0000000000
       387        78  DCM       H1              2.0268371077        8.9087188233        0.1237650995  CLST      78              1.0000000000
       388        78  DCM       H2              1.2282241193        7.6971882198        1.2358833661  CLST      78              1.0000000000
       389        78  DCM       CL1             3.5583199021        7.2524594802        0.9086540448  CLST      78              1.0000000000
       390        78  DCM       CL2             2.3530058987        9.4378624925        2.4283887998  CLST      78              1.0000000000
       391        79  DCM       C               8.3263930593       -5.6561548312       -5.3068691113  CLST      79              1.0000000000
       392        79  DCM       H1              8.6764687913       -5.8542238737       -6.3422327691  CLST      79              1.0000000000
       393        79  DCM       H2              8.4375674251       -6.5563754952       -4.6660481551  CLST      79              1.0000000000
       394        79  DCM       CL1             9.2941596672       -4.3250330643       -4.6121819875  CLST      79              1.0000000000
       395        79  DCM       CL2             6.6036094832       -5.1863173171       -5.3581846991  CLST      79              1.0000000000
       396        80  DCM       C               7.9863664977        5.7416749968       -1.5484539082  CLST      80              1.0000000000
       397        80  DCM       H1              8.1940944473        6.8090004110       -1.3232481330  CLST      80              1.0000000000
       398        80  DCM       H2              8.1125886642        5.1098854494       -0.6448122199  CLST      80              1.0000000000
       399        80  DCM       CL1             6.3067678948        5.5873728529       -2.1375996734  CLST      80              1.0000000000
       400        80  DCM       CL2             9.1274983059        5.1824307517       -2.8025535141  CLST      80              1.0000000000
       401        81  DCM       C              -1.0794989663        4.9583419671       -7.0731828683  CLST      81              1.0000000000
       402        81  DCM       H1             -2.1019715545        4.5526263348       -6.9268009608  CLST      81              1.0000000000
       403        81  DCM       H2             -0.7694452843        5.5587636131       -6.1933593091  CLST      81              1.0000000000
       404        81  DCM       CL1             0.0641593549        3.6035210738       -7.2906980762  CLST      81              1.0000000000
       405        81  DCM       CL2            -1.0622307745        6.0019582643       -8.5226673428  CLST      81              1.0000000000
       406        82  DCM       C              -1.8969257953      -12.1033080730       -0.1194619694  CLST      82              1.0000000000
       407        82  DCM       H1             -1.6958000277      -12.2808642698        0.9581640953  CLST      82              1.0000000000
       408        82  DCM       H2             -2.9444036560      -12.3658401796       -0.3778433752  CLST      82              1.0000000000
       409        82  DCM       CL1            -1.6223241897      -10.3749830988       -0.4874441640  CLST      82              1.0000000000
       410        82  DCM       CL2            -0.7871577354      -13.1135187957       -1.0910956546  CLST      82              1.0000000000
       411        83  DCM       C              -0.9433981329       -0.0210456634        5.6629376942  CLST      83              1.0000000000
       412        83  DCM       H1             -1.5830999755        0.7499232381        6.1432916623  CLST      83              1.0000000000
       413        83  DCM       H2             -0.5307534614        0.3428729689        4.7008773030  CLST      83              1.0000000000
       414        83  DCM       CL1             0.4145702349       -0.4136070089        6.7531003787  CLST      83              1.0000000000
       415        83  DCM       CL2            -1.9240465069       -1.4844265184        5.3646706359  CLST      83              1.0000000000
       416        84  DCM       C               9.7841359426        5.6116696757        2.2358737674  CLST      84              1.0000000000
       417        84  DCM       H1             10.4659770815        5.9365015524        3.0508124372  CLST      84              1.0000000000
       418        84  DCM       H2              9.1166436297        4.7937948184        2.5782683662  CLST      84              1.0000000000
       419        84  DCM       CL1             8.7872124000        7.0036555454        1.7246067150  CLST      84              1.0000000000
       420        84  DCM       CL2            10.7582957602        5.0274484603        0.8552689888  CLST      84              1.0000000000
       421        85  DCM       C               0.2492341463      -11.2527378001        3.5471304497  CLST      85              1.0000000000
       422        85  DCM       H1              0.9570047325      -10.7053225689        4.2030339103  CLST      85              1.0000000000
       423        85  DCM       H2             -0.0255796399      -12.2353952566        3.9871145760  CLST      85              1.0000000000
       424        85  DCM       CL1            -1.2306615964      -10.2744054967        3.3285325331  CLST      85              1.0000000000
       425        85  DCM       CL2             1.0222093387      -11.5238587642        1.9619068460  CLST      85              1.0000000000
       426        86  DCM       C               5.8486144373       -1.1034555979        1.1032857762  CLST      86              1.0000000000
       427        86  DCM       H1              5.9722069015       -0.5070035583        0.1753714220  CLST      86              1.0000000000
       428        86  DCM       H2              5.1728460414       -0.5933857026        1.8233022827  CLST      86              1.0000000000
       429        86  DCM       CL1             5.1555789187       -2.6948293433        0.6790738088  CLST      86              1.0000000000
       430        86  DCM       CL2             7.4512362481       -1.3169704891        1.8610407974  CLST      86              1.0000000000
       431        87  DCM       C              -4.2371430014        3.4116865723      -10.5200083658  CLST      87              1.0000000000
       432        87  DCM       H1             -5.1946631573        3.9730214043      -10.5548874443  CLST      87              1.0000000000
       433        87  DCM       H2             -4.3411017103        2.4136585424      -10.9960184876  CLST      87              1.0000000000
       434        87  DCM       CL1            -3.7564297217        3.1921470766       -8.8140703482  CLST      87              1.0000000000
       435        87  DCM       CL2            -2.9809485523        4.3435261939      -11.3856242492  CLST      87              1.0000000000
       436        88  DCM       C               5.7893531915       10.6499330248       -1.0856981409  CLST      88              1.0000000000
       437        88  DCM       H1              5.8401614393       10.6252806659       -2.1946199027  CLST      88              1.0000000000
       438        88  DCM       H2              6.4036288879       11.4784973070       -0.6738906326  CLST      88              1.0000000000
       439        88  DCM       CL1             4.0891237067       10.8908884560       -0.5911269208  CLST      88              1.0000000000
       440        88  DCM       CL2             6.3993097846        9.0987042568       -0.4391035584  CLST      88              1.0000000000
       441        89  DCM       C              -5.1561498861        0.8454811990        0.1779234675  CLST      89              1.0000000000
       442        89  DCM       H1             -4.3485042423        1.6054467649        0.1299484423  CLST      89              1.0000000000
       443        89  DCM       H2             -5.9858594529        1.1031913670       -0.5125367983  CLST      89              1.0000000000
       444        89  DCM       CL1            -4.4861213667       -0.7414535189       -0.2867444907  CLST      89              1.0000000000
       445        89  DCM       CL2            -5.7895500414        0.7691324872        1.8467182825  CLST      89              1.0000000000
       446        90  DCM       C               1.9024478914        9.5339878958       -7.6697056244  CLST      90              1.0000000000
       447        90  DCM       H1              1.2411961557        8.7545807828       -7.2364502491  CLST      90              1.0000000000
       448        90  DCM       H2              1.6440699759        9.7285751964       -8.7323034354  CLST      90              1.0000000000
       449        90  DCM       CL1             1.7074532722       11.0454322777       -6.7357002242  CLST      90              1.0000000000
       450        90  DCM       CL2             3.6010235738        8.9834445657       -7.5770180520  CLST      90              1.0000000000
       451        91  DCM       C              -4.1275002458        5.4170911759       -3.8231421517  CLST      91              1.0000000000
       452        91  DCM       H1             -3.3830789863        4.9273898287       -3.1629088924  CLST      91              1.0000000000
       453        91  DCM       H2             -4.9001469280        5.9462631047       -3.2263467666  CLST      91              1.0000000000
       454        91  DCM       CL1            -3.2872862813        6.5979494640       -4.8689525106  CLST      91              1.0000000000
       455        91  DCM       CL2            -4.9135500837        4.1667374605       -4.8284210386  CLST      91              1.0000000000
       456        92  DCM       C               3.8104549351       -8.3072040957        6.2531052511  CLST      92              1.0000000000
       457        92  DCM       H1              3.9088388307       -8.0717657637        7.3337621292  CLST      92              1.0000000000
       458        92  DCM       H2              2.9265423899       -7.7983033460        5.8139607632  CLST      92              1.0000000000
       459        92  DCM       CL1             5.2823976570       -7.7525352458        5.4025650918  CLST      92              1.0000000000
       460        92  DCM       CL2             3.6165664276      -10.0736086911        6.0584395726  CLST      92              1.0000000000
