* PRE_MLPOT:MONOMER_REPACK
*  DATE:     6/28/26      1:56:20      CREATED BY USER: boittier
*
       460  EXT
         1         1  DCM       C              -0.6874183526       -1.2801965692       -1.7483785333  CLST      1               1.0000000000
         2         1  DCM       H1             -1.3788450990       -1.3603797670       -0.8831033193  CLST      1               1.0000000000
         3         1  DCM       H2             -1.0780867537       -0.5706466770       -2.5068320893  CLST      1               1.0000000000
         4         1  DCM       CL1             0.8987409253       -0.6920064241       -1.1701693114  CLST      1               1.0000000000
         5         1  DCM       CL2            -0.5038951330       -2.8931842317       -2.4977425330  CLST      1               1.0000000000
         6         2  DCM       C              -0.3969524727       -1.4773594832        2.5465700021  CLST      2               1.0000000000
         7         2  DCM       H1             -1.3496943202       -0.9175788551        2.4338937312  CLST      2               1.0000000000
         8         2  DCM       H2             -0.4276407227       -2.1511212707        3.4287725111  CLST      2               1.0000000000
         9         2  DCM       CL1            -0.1227778656       -2.4576003923        1.0776986930  CLST      2               1.0000000000
        10         2  DCM       CL2             0.9414022400       -0.3130720173        2.7550208573  CLST      2               1.0000000000
        11         3  DCM       C               1.8747875732        0.6277940718       -2.7168086067  CLST      3               1.0000000000
        12         3  DCM       H1              2.9340328486        0.3860532793       -2.9468611199  CLST      3               1.0000000000
        13         3  DCM       H2              1.5675122526        0.1811964229       -1.7482772163  CLST      3               1.0000000000
        14         3  DCM       CL1             1.6884670654        2.4032881456       -2.6264231815  CLST      3               1.0000000000
        15         3  DCM       CL2             0.8323022237       -0.0232338706       -4.0144720801  CLST      3               1.0000000000
        16         4  DCM       C               0.8016804191       -2.7848496850        2.9589701910  CLST      4               1.0000000000
        17         4  DCM       H1             -0.3063251561       -2.8641570945        2.9633259778  CLST      4               1.0000000000
        18         4  DCM       H2              1.1284490412       -1.7398335572        3.1437493890  CLST      4               1.0000000000
        19         4  DCM       CL1             1.4654714047       -3.8368404374        4.2436340161  CLST      4               1.0000000000
        20         4  DCM       CL2             1.4147755571       -3.3111987400        1.3641063223  CLST      4               1.0000000000
        21         5  DCM       C              -0.5270130816       -2.0031680630        0.8294490622  CLST      5               1.0000000000
        22         5  DCM       H1             -0.3115349246       -2.5716267299        1.7598224581  CLST      5               1.0000000000
        23         5  DCM       H2              0.4100223470       -1.6901868894        0.3245715797  CLST      5               1.0000000000
        24         5  DCM       CL1            -1.4633296274       -3.0465302596       -0.2778522949  CLST      5               1.0000000000
        25         5  DCM       CL2            -1.4778139362       -0.5462669208        1.2400131755  CLST      5               1.0000000000
        26         6  DCM       C              -2.3600458703        0.3128994221        1.4782674149  CLST      6               1.0000000000
        27         6  DCM       H1             -1.7344817769       -0.2332319403        2.2143614543  CLST      6               1.0000000000
        28         6  DCM       H2             -1.7593062759        1.0652752112        0.9242446214  CLST      6               1.0000000000
        29         6  DCM       CL1            -3.0340499573       -0.8662400932        0.3167520335  CLST      6               1.0000000000
        30         6  DCM       CL2            -3.6819439551        1.1485807104        2.3468989671  CLST      6               1.0000000000
        31         7  DCM       C               2.7540916857       -0.1554317343       -0.6335180030  CLST      7               1.0000000000
        32         7  DCM       H1              3.7729266784        0.2755535763       -0.5762239153  CLST      7               1.0000000000
        33         7  DCM       H2              2.3189874039       -0.0148204547       -1.6450254753  CLST      7               1.0000000000
        34         7  DCM       CL1             2.8504799902       -1.9050055193       -0.2769035447  CLST      7               1.0000000000
        35         7  DCM       CL2             1.7202497658        0.6690174510        0.5698009270  CLST      7               1.0000000000
        36         8  DCM       C              -0.0111823319        0.5775996070        2.3122915446  CLST      8               1.0000000000
        37         8  DCM       H1             -0.9161979946        0.4551745492        1.6806179370  CLST      8               1.0000000000
        38         8  DCM       H2              0.8989384347        0.2417913595        1.7733498497  CLST      8               1.0000000000
        39         8  DCM       CL1             0.1756468167        2.3026167454        2.7411002939  CLST      8               1.0000000000
        40         8  DCM       CL2            -0.1970966468       -0.4000242401        3.7969768145  CLST      8               1.0000000000
        41         9  DCM       C              -3.6004309018        1.8631383224       -2.2770705941  CLST      9               1.0000000000
        42         9  DCM       H1             -4.0614277447        1.6373089922       -1.2945593891  CLST      9               1.0000000000
        43         9  DCM       H2             -4.2955976749        1.6186141432       -3.1087133300  CLST      9               1.0000000000
        44         9  DCM       CL1            -3.1911506729        3.5996519333       -2.3419758548  CLST      9               1.0000000000
        45         9  DCM       CL2            -2.1200479980        0.8869017113       -2.4600458975  CLST      9               1.0000000000
        46        10  DCM       C               2.4111415992        1.3255418576       -2.9467068976  CLST      10              1.0000000000
        47        10  DCM       H1              3.2790198476        1.9732856026       -2.7100757996  CLST      10              1.0000000000
        48        10  DCM       H2              2.0289531036        0.8266931507       -2.0324477678  CLST      10              1.0000000000
        49        10  DCM       CL1             1.1115487674        2.3275605045       -3.6537795663  CLST      10              1.0000000000
        50        10  DCM       CL2             2.9222620957        0.0795722992       -4.1199840018  CLST      10              1.0000000000
        51        11  DCM       C              -0.9592419056        1.6874438844        0.9034799298  CLST      11              1.0000000000
        52        11  DCM       H1             -0.8493078950        2.4121385469        0.0676883841  CLST      11              1.0000000000
        53        11  DCM       H2             -2.0240879528        1.4291556697        1.0699665074  CLST      11              1.0000000000
        54        11  DCM       CL1            -0.0551699867        0.1992833521        0.5021895770  CLST      11              1.0000000000
        55        11  DCM       CL2            -0.2971639520        2.4172258982        2.3943754126  CLST      11              1.0000000000
        56        12  DCM       C              -2.4583614385       -1.5671430069       -0.2796502842  CLST      12              1.0000000000
        57        12  DCM       H1             -2.1368084438       -2.6196749713       -0.4434470024  CLST      12              1.0000000000
        58        12  DCM       H2             -3.1271941086       -1.2269171932       -1.0904804956  CLST      12              1.0000000000
        59        12  DCM       CL1            -3.3389973155       -1.4616102881        1.2683931542  CLST      12              1.0000000000
        60        12  DCM       CL2            -1.0113404774       -0.5244930313       -0.2424320604  CLST      12              1.0000000000
        61        13  DCM       C               2.0599862794        0.8846183672        1.9444009291  CLST      13              1.0000000000
        62        13  DCM       H1              2.7489049735        0.0359082006        1.7568388858  CLST      13              1.0000000000
        63        13  DCM       H2              2.3053989519        1.3846112911        2.9042869844  CLST      13              1.0000000000
        64        13  DCM       CL1             2.2230236405        2.0674528194        0.6148360886  CLST      13              1.0000000000
        65        13  DCM       CL2             0.3810017236        0.2723948388        2.0114815567  CLST      13              1.0000000000
        66        14  DCM       C              -2.5303310392       -1.0421957903       -1.2879646227  CLST      14              1.0000000000
        67        14  DCM       H1             -2.6007280009       -0.9725508653       -0.1820602897  CLST      14              1.0000000000
        68        14  DCM       H2             -1.7807588711       -0.3276326846       -1.6850664807  CLST      14              1.0000000000
        69        14  DCM       CL1            -2.0456165764       -2.7001527347       -1.7391286067  CLST      14              1.0000000000
        70        14  DCM       CL2            -4.1222854755       -0.6618439160       -2.0026947285  CLST      14              1.0000000000
        71        15  DCM       C              -2.3056496357        1.1410919940       -1.2833043822  CLST      15              1.0000000000
        72        15  DCM       H1             -3.1747098184        0.9083827221       -1.9344482907  CLST      15              1.0000000000
        73        15  DCM       H2             -1.3571714112        0.7886712023       -1.7420127377  CLST      15              1.0000000000
        74        15  DCM       CL1            -2.2155573697        2.9107773452       -1.0431024552  CLST      15              1.0000000000
        75        15  DCM       CL2            -2.5262618619        0.3269240565        0.2927244784  CLST      15              1.0000000000
        76        16  DCM       C               1.1111243330        0.0842139400       -2.2985013235  CLST      16              1.0000000000
        77        16  DCM       H1              1.1105404609        0.9893939505       -2.9396390746  CLST      16              1.0000000000
        78        16  DCM       H2              0.1748875510        0.0196510322       -1.7044493501  CLST      16              1.0000000000
        79        16  DCM       CL1             1.2474424663       -1.3612470403       -3.3392005269  CLST      16              1.0000000000
        80        16  DCM       CL2             2.5060823796        0.1609042408       -1.1838971060  CLST      16              1.0000000000
        81        17  DCM       C              -3.3073753912        2.5469146665        0.4847320842  CLST      17              1.0000000000
        82        17  DCM       H1             -4.1875871827        3.1242766306        0.1315834830  CLST      17              1.0000000000
        83        17  DCM       H2             -3.4098929097        2.2792809348        1.5576528097  CLST      17              1.0000000000
        84        17  DCM       CL1            -3.1646048622        1.0522493510       -0.4856261071  CLST      17              1.0000000000
        85        17  DCM       CL2            -1.8400699120        3.5425844907        0.2737319602  CLST      17              1.0000000000
        86        18  DCM       C               2.7050001471        0.3106232070        2.4151244223  CLST      18              1.0000000000
        87        18  DCM       H1              3.3574993211        0.6292370679        3.2543727041  CLST      18              1.0000000000
        88        18  DCM       H2              2.0550103456       -0.5373869739        2.7133109474  CLST      18              1.0000000000
        89        18  DCM       CL1             1.6653134017        1.6764609118        1.9296177509  CLST      18              1.0000000000
        90        18  DCM       CL2             3.7243975705       -0.2006510847        1.0409905774  CLST      18              1.0000000000
        91        19  DCM       C              -0.8948734184        2.2877955518       -1.8139486618  CLST      19              1.0000000000
        92        19  DCM       H1             -0.1939023851        1.6130151416       -1.2791189707  CLST      19              1.0000000000
        93        19  DCM       H2             -1.1360833266        3.1806771673       -1.2009767906  CLST      19              1.0000000000
        94        19  DCM       CL1            -0.1408835569        2.8214010727       -3.3440551966  CLST      19              1.0000000000
        95        19  DCM       CL2            -2.4078448670        1.4008431250       -2.1587520200  CLST      19              1.0000000000
        96        20  DCM       C               1.0859567167       -1.2950079636       -2.8929478687  CLST      20              1.0000000000
        97        20  DCM       H1              0.8502023254       -1.9805053039       -2.0524065988  CLST      20              1.0000000000
        98        20  DCM       H2              1.5824824206       -0.3736605733       -2.5232442871  CLST      20              1.0000000000
        99        20  DCM       CL1             2.1747314433       -2.1324963354       -4.0358953669  CLST      20              1.0000000000
       100        20  DCM       CL2            -0.4306226819       -0.8471930852       -3.7245251396  CLST      20              1.0000000000
       101        21  DCM       C               0.4350529775        2.1353819917       -1.7453705234  CLST      21              1.0000000000
       102        21  DCM       H1              0.4379365124        3.1518793129       -1.2979980495  CLST      21              1.0000000000
       103        21  DCM       H2              1.3822589208        1.5999419543       -1.5253749032  CLST      21              1.0000000000
       104        21  DCM       CL1            -0.9320693453        1.2041759188       -1.0700202589  CLST      21              1.0000000000
       105        21  DCM       CL2             0.2445995154        2.2802404096       -3.5160681560  CLST      21              1.0000000000
       106        22  DCM       C              -0.4037095259       -0.4224401293       -0.2152700739  CLST      22              1.0000000000
       107        22  DCM       H1             -1.2097119248       -0.8097400309        0.4438100550  CLST      22              1.0000000000
       108        22  DCM       H2              0.4642805668       -1.1146664311       -0.2357046415  CLST      22              1.0000000000
       109        22  DCM       CL1            -1.0478187868       -0.2416271379       -1.8729742424  CLST      22              1.0000000000
       110        22  DCM       CL2             0.1344621847        1.1663189220        0.4012996517  CLST      22              1.0000000000
       111        23  DCM       C               1.0897133255       -1.7128895579       -2.8521715079  CLST      23              1.0000000000
       112        23  DCM       H1              1.3079487653       -0.6247164606       -2.8991714239  CLST      23              1.0000000000
       113        23  DCM       H2              1.7192732034       -2.2824721069       -3.5650779843  CLST      23              1.0000000000
       114        23  DCM       CL1             1.4085364395       -2.3070477935       -1.2003197638  CLST      23              1.0000000000
       115        23  DCM       CL2            -0.6201409464       -1.9782753801       -3.2730941274  CLST      23              1.0000000000
       116        24  DCM       C               1.6569807640       -2.7940564565        1.1203044983  CLST      24              1.0000000000
       117        24  DCM       H1              2.5413977299       -2.2908429201        0.6749875614  CLST      24              1.0000000000
       118        24  DCM       H2              0.7487010310       -2.1626164116        1.0268484157  CLST      24              1.0000000000
       119        24  DCM       CL1             1.3784153149       -4.3417722458        0.2674464459  CLST      24              1.0000000000
       120        24  DCM       CL2             1.9796126245       -3.0969511900        2.8529680957  CLST      24              1.0000000000
       121        25  DCM       C              -2.4603099643        2.2988458983       -1.0918254339  CLST      25              1.0000000000
       122        25  DCM       H1             -2.4666967251        3.3947730093       -1.2682420675  CLST      25              1.0000000000
       123        25  DCM       H2             -2.9324534986        2.0550237027       -0.1173751938  CLST      25              1.0000000000
       124        25  DCM       CL1            -3.3738320876        1.4916407794       -2.3980919934  CLST      25              1.0000000000
       125        25  DCM       CL2            -0.7695025553        1.7200067890       -1.0851036427  CLST      25              1.0000000000
       126        26  DCM       C               1.6899537956        2.5869926682        1.1088377615  CLST      26              1.0000000000
       127        26  DCM       H1              0.9756204936        2.9609982487        1.8722951201  CLST      26              1.0000000000
       128        26  DCM       H2              1.8352123986        3.3317500390        0.2974012611  CLST      26              1.0000000000
       129        26  DCM       CL1             3.2630231570        2.2649294423        1.8951800477  CLST      26              1.0000000000
       130        26  DCM       CL2             1.0470054431        1.0757567157        0.4035894732  CLST      26              1.0000000000
       131        27  DCM       C               0.4119053369       -2.7259273346        1.4953370026  CLST      27              1.0000000000
       132        27  DCM       H1              1.5020097817       -2.5208691789        1.4448681991  CLST      27              1.0000000000
       133        27  DCM       H2              0.2074122060       -3.8061187849        1.3574996977  CLST      27              1.0000000000
       134        27  DCM       CL1            -0.2045933759       -2.2157591192        3.0928738172  CLST      27              1.0000000000
       135        27  DCM       CL2            -0.4187015487       -1.8148796388        0.2017648518  CLST      27              1.0000000000
       136        28  DCM       C               0.3930248050        2.2822226306        1.0723914235  CLST      28              1.0000000000
       137        28  DCM       H1              1.4802715426        2.3863064524        0.8700536121  CLST      28              1.0000000000
       138        28  DCM       H2             -0.1025547216        3.2741971203        1.0939978498  CLST      28              1.0000000000
       139        28  DCM       CL1            -0.3531487595        1.2856327166       -0.2086413721  CLST      28              1.0000000000
       140        28  DCM       CL2             0.1648474306        1.4835753414        2.6533395377  CLST      28              1.0000000000
       141        29  DCM       C               0.8270041090        0.6778557995        0.9065727513  CLST      29              1.0000000000
       142        29  DCM       H1              0.8864321708        1.1188977016       -0.1115071473  CLST      29              1.0000000000
       143        29  DCM       H2              1.6159742852       -0.0876472420        1.0568060107  CLST      29              1.0000000000
       144        29  DCM       CL1             1.0407213974        1.9833215358        2.1067865110  CLST      29              1.0000000000
       145        29  DCM       CL2            -0.7737677911       -0.0886622265        1.1222173389  CLST      29              1.0000000000
       146        30  DCM       C              -0.9825353713        2.6473787630       -0.8109519052  CLST      30              1.0000000000
       147        30  DCM       H1             -0.7458587456        2.8972856579       -1.8657223167  CLST      30              1.0000000000
       148        30  DCM       H2             -0.1994314204        3.0298374391       -0.1232499913  CLST      30              1.0000000000
       149        30  DCM       CL1            -2.5529162161        3.3789160047       -0.3732293134  CLST      30              1.0000000000
       150        30  DCM       CL2            -1.0788146129        0.8728274300       -0.6481248399  CLST      30              1.0000000000
       151        31  DCM       C               1.9628502819       -1.7590596358       -1.5993602925  CLST      31              1.0000000000
       152        31  DCM       H1              2.7432991530       -1.0705525917       -1.9895996414  CLST      31              1.0000000000
       153        31  DCM       H2              2.3160991161       -2.8112168622       -1.6084512032  CLST      31              1.0000000000
       154        31  DCM       CL1             0.5087226744       -1.6281152938       -2.6285444034  CLST      31              1.0000000000
       155        31  DCM       CL2             1.5622754591       -1.2992251284        0.0806173270  CLST      31              1.0000000000
       156        32  DCM       C              -0.6671105169        1.3825170556        1.3012459356  CLST      32              1.0000000000
       157        32  DCM       H1             -0.6625841769        0.7436298388        0.3943511999  CLST      32              1.0000000000
       158        32  DCM       H2              0.2995224750        1.9127845452        1.4180313471  CLST      32              1.0000000000
       159        32  DCM       CL1            -1.9697718190        2.5930917180        1.1562637596  CLST      32              1.0000000000
       160        32  DCM       CL2            -0.9518628099        0.3595862759        2.7381976708  CLST      32              1.0000000000
       161        33  DCM       C               0.5084412280       -0.6599277394       -3.3963327091  CLST      33              1.0000000000
       162        33  DCM       H1              0.8918082831       -0.5890754732       -4.4349557733  CLST      33              1.0000000000
       163        33  DCM       H2              0.6019079566        0.3133347257       -2.8721728372  CLST      33              1.0000000000
       164        33  DCM       CL1            -1.2100103133       -1.1370949024       -3.4454520539  CLST      33              1.0000000000
       165        33  DCM       CL2             1.4497843527       -1.8912674317       -2.5115449385  CLST      33              1.0000000000
       166        34  DCM       C              -0.8628798384       -2.1462190147       -1.4459884294  CLST      34              1.0000000000
       167        34  DCM       H1             -1.6061067954       -2.1124925183       -0.6225743272  CLST      34              1.0000000000
       168        34  DCM       H2              0.0523369271       -2.6914720236       -1.1335851487  CLST      34              1.0000000000
       169        34  DCM       CL1            -1.5820321741       -2.9838894533       -2.8496782895  CLST      34              1.0000000000
       170        34  DCM       CL2            -0.4230014375       -0.4766990903       -1.9033657285  CLST      34              1.0000000000
       171        35  DCM       C               0.5517063935        2.4896045705       -2.3012811502  CLST      35              1.0000000000
       172        35  DCM       H1              0.6024594765        2.0979138974       -3.3392108731  CLST      35              1.0000000000
       173        35  DCM       H2              1.3224140534        2.0144627534       -1.6588674382  CLST      35              1.0000000000
       174        35  DCM       CL1             0.8291025656        4.2545637696       -2.3278401489  CLST      35              1.0000000000
       175        35  DCM       CL2            -1.0633668157        2.1362695046       -1.6244296184  CLST      35              1.0000000000
       176        36  DCM       C              -0.9592178292       -2.5497265968       -2.3607620064  CLST      36              1.0000000000
       177        36  DCM       H1              0.1193332847       -2.3323311436       -2.5135645109  CLST      36              1.0000000000
       178        36  DCM       H2             -1.2168792449       -2.5510623077       -1.2806654100  CLST      36              1.0000000000
       179        36  DCM       CL1            -1.9261959082       -1.2936313616       -3.1871760182  CLST      36              1.0000000000
       180        36  DCM       CL2            -1.3347162259       -4.1565271436       -3.0505156185  CLST      36              1.0000000000
       181        37  DCM       C               2.8500439323       -2.1643562765       -1.8072108640  CLST      37              1.0000000000
       182        37  DCM       H1              2.2224365678       -2.3469815786       -0.9121586105  CLST      37              1.0000000000
       183        37  DCM       H2              2.2476645003       -2.2155523288       -2.7382949631  CLST      37              1.0000000000
       184        37  DCM       CL1             3.5772724485       -0.5390378721       -1.6683431693  CLST      37              1.0000000000
       185        37  DCM       CL2             4.1325935476       -3.4060117314       -1.8790644938  CLST      37              1.0000000000
       186        38  DCM       C              -1.6642846122        2.0063042276       -2.5957668686  CLST      38              1.0000000000
       187        38  DCM       H1             -2.0847395992        2.1628729404       -3.6102023748  CLST      38              1.0000000000
       188        38  DCM       H2             -0.5851248264        1.7509179647       -2.6522680343  CLST      38              1.0000000000
       189        38  DCM       CL1            -2.5423172171        0.6671540712       -1.8065156420  CLST      38              1.0000000000
       190        38  DCM       CL2            -1.8685418889        3.5031467361       -1.6413474760  CLST      38              1.0000000000
       191        39  DCM       C               1.3264875659       -2.1729894130        2.7943126362  CLST      39              1.0000000000
       192        39  DCM       H1              2.1169956177       -2.1504232517        2.0149549802  CLST      39              1.0000000000
       193        39  DCM       H2              1.7535304006       -2.0041078652        3.8057137058  CLST      39              1.0000000000
       194        39  DCM       CL1             0.1280565711       -0.8939047305        2.4471582929  CLST      39              1.0000000000
       195        39  DCM       CL2             0.5296010657       -3.7703270860        2.7618685176  CLST      39              1.0000000000
       196        40  DCM       C               2.6048321556        2.7609252931       -1.6944064733  CLST      40              1.0000000000
       197        40  DCM       H1              2.9398335012        2.4465998850       -2.7048264618  CLST      40              1.0000000000
       198        40  DCM       H2              3.4495719493        3.1847591821       -1.1114270793  CLST      40              1.0000000000
       199        40  DCM       CL1             1.3331703674        4.0046318022       -1.8659736871  CLST      40              1.0000000000
       200        40  DCM       CL2             1.9476278112        1.3468837735       -0.8218211986  CLST      40              1.0000000000
       201        41  DCM       C              -1.0573791236        0.3967384419       -3.1794866122  CLST      41              1.0000000000
       202        41  DCM       H1             -0.4980648394        0.6830583927       -2.2659973910  CLST      41              1.0000000000
       203        41  DCM       H2             -0.5060518918       -0.3750959183       -3.7528107893  CLST      41              1.0000000000
       204        41  DCM       CL1            -2.6524659624       -0.2617070364       -2.7114289317  CLST      41              1.0000000000
       205        41  DCM       CL2            -1.2644476631        1.8416617326       -4.2098624413  CLST      41              1.0000000000
       206        42  DCM       C               0.3767261462        0.2564550244       -0.2143446768  CLST      42              1.0000000000
       207        42  DCM       H1              1.1023112301       -0.4154384869       -0.7168507737  CLST      42              1.0000000000
       208        42  DCM       H2             -0.6514199568        0.0784486294       -0.5887972913  CLST      42              1.0000000000
       209        42  DCM       CL1             0.4182275823       -0.0488695116        1.5434023315  CLST      42              1.0000000000
       210        42  DCM       CL2             0.8282325642        1.9511657424       -0.5460424922  CLST      42              1.0000000000
       211        43  DCM       C              -2.7210683596       -2.5874197397        0.4180769601  CLST      43              1.0000000000
       212        43  DCM       H1             -2.9012898805       -3.5422929346        0.9551066855  CLST      43              1.0000000000
       213        43  DCM       H2             -1.6968130837       -2.2082012176        0.6131256304  CLST      43              1.0000000000
       214        43  DCM       CL1            -2.9227991079       -2.8657496182       -1.3359660995  CLST      43              1.0000000000
       215        43  DCM       CL2            -3.9090738828       -1.3777800747        0.9817375970  CLST      43              1.0000000000
       216        44  DCM       C              -2.2633310350        0.1650823568       -0.3816371446  CLST      44              1.0000000000
       217        44  DCM       H1             -2.4076906443       -0.5462304196       -1.2216164818  CLST      44              1.0000000000
       218        44  DCM       H2             -1.2061927350        0.1721665098       -0.0436415690  CLST      44              1.0000000000
       219        44  DCM       CL1            -2.7068156721        1.8074870512       -0.9215436322  CLST      44              1.0000000000
       220        44  DCM       CL2            -3.3077336726       -0.3190699862        0.9829191490  CLST      44              1.0000000000
       221        45  DCM       C              -2.4991585581       -1.3268754454        2.2439936521  CLST      45              1.0000000000
       222        45  DCM       H1             -1.4551612041       -1.6112853493        2.4938284527  CLST      45              1.0000000000
       223        45  DCM       H2             -2.9797476939       -0.7894255879        3.0891350489  CLST      45              1.0000000000
       224        45  DCM       CL1            -2.4854185955       -0.2585282359        0.8100694448  CLST      45              1.0000000000
       225        45  DCM       CL2            -3.4374146233       -2.8069949214        1.8868221326  CLST      45              1.0000000000
       226        46  DCM       C              -3.6420529231       -2.1957993562       -2.9383010051  CLST      46              1.0000000000
       227        46  DCM       H1             -3.6970107760       -2.5017988498       -1.8739353342  CLST      46              1.0000000000
       228        46  DCM       H2             -4.3847694950       -2.7474124257       -3.5518460370  CLST      46              1.0000000000
       229        46  DCM       CL1            -3.9797153499       -0.4464829071       -3.0489440278  CLST      46              1.0000000000
       230        46  DCM       CL2            -2.0000035374       -2.5416198812       -3.5523613285  CLST      46              1.0000000000
       231        47  DCM       C               3.1943707688       -0.8204177436        1.4154784981  CLST      47              1.0000000000
       232        47  DCM       H1              2.0841523674       -0.8570890119        1.4303907192  CLST      47              1.0000000000
       233        47  DCM       H2              3.5584764430        0.2254428541        1.3378340974  CLST      47              1.0000000000
       234        47  DCM       CL1             3.8115823311       -1.5367307905        2.9300551529  CLST      47              1.0000000000
       235        47  DCM       CL2             3.7854086366       -1.7549907741        0.0111585320  CLST      47              1.0000000000
       236        48  DCM       C               0.9285945482        1.3352129240       -0.8945469606  CLST      48              1.0000000000
       237        48  DCM       H1              0.9812786366        1.3190781964       -2.0036507149  CLST      48              1.0000000000
       238        48  DCM       H2             -0.0099341121        0.8638563644       -0.5327022389  CLST      48              1.0000000000
       239        48  DCM       CL1             2.3261423727        0.4381893345       -0.2337786655  CLST      48              1.0000000000
       240        48  DCM       CL2             0.9816487707        3.0315456022       -0.3354919861  CLST      48              1.0000000000
       241        49  DCM       C              -1.9425397627       -0.6325183070        0.7055591326  CLST      49              1.0000000000
       242        49  DCM       H1             -1.6120022409        0.2451985238        1.2954763695  CLST      49              1.0000000000
       243        49  DCM       H2             -1.1160602748       -1.0303010983        0.0783169007  CLST      49              1.0000000000
       244        49  DCM       CL1            -2.4775384096       -1.9110022651        1.8313185497  CLST      49              1.0000000000
       245        49  DCM       CL2            -3.2865154309       -0.1400875696       -0.3638629531  CLST      49              1.0000000000
       246        50  DCM       C              -1.7218300839       -2.3925715793        2.7036811863  CLST      50              1.0000000000
       247        50  DCM       H1             -2.5195712097       -2.3027826948        3.4702052413  CLST      50              1.0000000000
       248        50  DCM       H2             -1.1097165252       -1.4676306786        2.6574669605  CLST      50              1.0000000000
       249        50  DCM       CL1            -2.4818261517       -2.6666056697        1.1119932027  CLST      50              1.0000000000
       250        50  DCM       CL2            -0.6668757198       -3.7762832095        3.1112861426  CLST      50              1.0000000000
       251        51  DCM       C               0.6200882625        1.7097166639       -1.6146451926  CLST      51              1.0000000000
       252        51  DCM       H1              0.6882882310        1.5188590204       -2.7066712356  CLST      51              1.0000000000
       253        51  DCM       H2             -0.0175898478        0.9496352681       -1.1159706204  CLST      51              1.0000000000
       254        51  DCM       CL1             2.2601232610        1.6466276509       -0.9072752862  CLST      51              1.0000000000
       255        51  DCM       CL2            -0.0901681418        3.3282891562       -1.3491108052  CLST      51              1.0000000000
       256        52  DCM       C              -2.7040379382        1.5822167628        1.5473695732  CLST      52              1.0000000000
       257        52  DCM       H1             -2.8789968136        1.6835069035        0.4556219440  CLST      52              1.0000000000
       258        52  DCM       H2             -3.3375383107        0.7791289588        1.9781182838  CLST      52              1.0000000000
       259        52  DCM       CL1            -0.9859125963        1.1801630914        1.8323674165  CLST      52              1.0000000000
       260        52  DCM       CL2            -3.1038429481        3.1289246676        2.3478673048  CLST      52              1.0000000000
       261        53  DCM       C               0.0528658859       -0.5146408780        0.5234769588  CLST      53              1.0000000000
       262        53  DCM       H1             -0.3730691746       -1.3468267615       -0.0741756444  CLST      53              1.0000000000
       263        53  DCM       H2              0.7341414212        0.1095222281       -0.0910067638  CLST      53              1.0000000000
       264        53  DCM       CL1            -1.2810181582        0.5011014672        1.1299231555  CLST      53              1.0000000000
       265        53  DCM       CL2             0.9638019239       -1.1950237582        1.8971066672  CLST      53              1.0000000000
       266        54  DCM       C               2.6851666661        1.1552810991        2.6343934412  CLST      54              1.0000000000
       267        54  DCM       H1              3.0605014882        1.4725937365        3.6298067101  CLST      54              1.0000000000
       268        54  DCM       H2              1.5791346331        1.0518471579        2.6404031414  CLST      54              1.0000000000
       269        54  DCM       CL1             3.1449715731        2.3844946824        1.4208671676  CLST      54              1.0000000000
       270        54  DCM       CL2             3.4190279365       -0.4193469950        2.2134906782  CLST      54              1.0000000000
       271        55  DCM       C              -2.7944961349       -0.8967780044        0.9232484286  CLST      55              1.0000000000
       272        55  DCM       H1             -2.2778545336       -1.5577847941        0.1955738550  CLST      55              1.0000000000
       273        55  DCM       H2             -3.5356913250       -0.2478761427        0.4116260960  CLST      55              1.0000000000
       274        55  DCM       CL1            -3.6417501844       -1.9054535758        2.1317508512  CLST      55              1.0000000000
       275        55  DCM       CL2            -1.5838188103        0.1355953834        1.7373148174  CLST      55              1.0000000000
       276        56  DCM       C              -1.5127016162        1.2336028933        3.0430345800  CLST      56              1.0000000000
       277        56  DCM       H1             -2.2713112419        1.3643682724        2.2424353720  CLST      56              1.0000000000
       278        56  DCM       H2             -0.4857776292        1.3401059364        2.6362792960  CLST      56              1.0000000000
       279        56  DCM       CL1            -1.7707615203        2.4756668620        4.3009163022  CLST      56              1.0000000000
       280        56  DCM       CL2            -1.6847442059       -0.3951370600        3.7546257030  CLST      56              1.0000000000
       281        57  DCM       C               2.3828592528       -3.1949768482        0.4770165553  CLST      57              1.0000000000
       282        57  DCM       H1              1.3441115296       -2.8242516779        0.6113070434  CLST      57              1.0000000000
       283        57  DCM       H2              2.4964472654       -4.2139687127        0.9012931400  CLST      57              1.0000000000
       284        57  DCM       CL1             3.5126150281       -2.0879362997        1.3081082268  CLST      57              1.0000000000
       285        57  DCM       CL2             2.7692539087       -3.2460091360       -1.2672604071  CLST      57              1.0000000000
       286        58  DCM       C               0.8644677685        1.9610990759        1.7404743600  CLST      58              1.0000000000
       287        58  DCM       H1             -0.1361457739        1.5517789115        1.4879889468  CLST      58              1.0000000000
       288        58  DCM       H2              1.1331144618        1.7409469071        2.7942722874  CLST      58              1.0000000000
       289        58  DCM       CL1             2.0850407164        1.2150789448        0.6697816928  CLST      58              1.0000000000
       290        58  DCM       CL2             0.8455004835        3.7335633695        1.5050283170  CLST      58              1.0000000000
       291        59  DCM       C              -1.1907171919        1.7082247884        0.1331034620  CLST      59              1.0000000000
       292        59  DCM       H1             -1.4305639240        0.6488473597        0.3628436421  CLST      59              1.0000000000
       293        59  DCM       H2             -2.0941600148        2.2564734256       -0.2094411782  CLST      59              1.0000000000
       294        59  DCM       CL1            -0.5701031431        2.4876354475        1.6156543059  CLST      59              1.0000000000
       295        59  DCM       CL2             0.0498013357        1.7637936959       -1.1551166060  CLST      59              1.0000000000
       296        60  DCM       C               2.4312399852       -1.6888869356        0.8197889026  CLST      60              1.0000000000
       297        60  DCM       H1              1.4338281759       -1.2040463762        0.7993747197  CLST      60              1.0000000000
       298        60  DCM       H2              3.0269598773       -1.3231335847        1.6820388683  CLST      60              1.0000000000
       299        60  DCM       CL1             2.2150720474       -3.4573345964        0.9661939799  CLST      60              1.0000000000
       300        60  DCM       CL2             3.2979905425       -1.3042963917       -0.6944754723  CLST      60              1.0000000000
       301        61  DCM       C               1.6717237812        1.1366286099       -2.3095883351  CLST      61              1.0000000000
       302        61  DCM       H1              2.2386734636        0.6220221531       -3.1139242482  CLST      61              1.0000000000
       303        61  DCM       H2              2.3503895506        1.4959514640       -1.5075499933  CLST      61              1.0000000000
       304        61  DCM       CL1             0.8107629936        2.5364268086       -3.0119614771  CLST      61              1.0000000000
       305        61  DCM       CL2             0.4951728523       -0.0085657375       -1.6025406663  CLST      61              1.0000000000
       306        62  DCM       C               1.0615122473       -1.7425381159       -1.2345676304  CLST      62              1.0000000000
       307        62  DCM       H1              0.1653751831       -1.1349484784       -0.9878459320  CLST      62              1.0000000000
       308        62  DCM       H2              0.8409199712       -2.8280101115       -1.1545150951  CLST      62              1.0000000000
       309        62  DCM       CL1             2.3719720676       -1.3311410865       -0.0927033437  CLST      62              1.0000000000
       310        62  DCM       CL2             1.5762593884       -1.3720762582       -2.9050630592  CLST      62              1.0000000000
       311        63  DCM       C              -1.0885544982        2.9155876940        1.0370435947  CLST      63              1.0000000000
       312        63  DCM       H1             -0.1525289032        2.5728865422        0.5476447504  CLST      63              1.0000000000
       313        63  DCM       H2             -1.3738379117        2.2371132609        1.8675684038  CLST      63              1.0000000000
       314        63  DCM       CL1            -0.8387888247        4.5601799025        1.6905179038  CLST      63              1.0000000000
       315        63  DCM       CL2            -2.4058504577        2.9367521274       -0.1701017279  CLST      63              1.0000000000
       316        64  DCM       C               1.7831588149       -3.1923610736        0.5787435120  CLST      64              1.0000000000
       317        64  DCM       H1              2.2427813035       -3.3342286926       -0.4210936521  CLST      64              1.0000000000
       318        64  DCM       H2              1.2556360960       -2.2178072459        0.6420782114  CLST      64              1.0000000000
       319        64  DCM       CL1             0.6094870260       -4.5054288722        0.8769461107  CLST      64              1.0000000000
       320        64  DCM       CL2             3.0664960743       -3.2391939796        1.8162829865  CLST      64              1.0000000000
       321        65  DCM       C              -1.0849393643        2.0919940621        2.4488323804  CLST      65              1.0000000000
       322        65  DCM       H1             -1.1593915433        0.9863928709        2.3768539975  CLST      65              1.0000000000
       323        65  DCM       H2             -0.9296426613        2.5464801252        1.4483378033  CLST      65              1.0000000000
       324        65  DCM       CL1            -2.5987514928        2.7353934161        3.1436934301  CLST      65              1.0000000000
       325        65  DCM       CL2             0.2932393904        2.5214402074        3.5019199031  CLST      65              1.0000000000
       326        66  DCM       C              -1.1846811496       -2.1438818028       -0.5912393001  CLST      66              1.0000000000
       327        66  DCM       H1             -1.5975837407       -2.8461807551       -1.3452124540  CLST      66              1.0000000000
       328        66  DCM       H2             -0.0803354890       -2.2344915064       -0.5322373089  CLST      66              1.0000000000
       329        66  DCM       CL1            -1.6007603468       -0.4718718777       -1.0555992122  CLST      66              1.0000000000
       330        66  DCM       CL2            -1.8859831598       -2.5203840162        1.0084078432  CLST      66              1.0000000000
       331        67  DCM       C              -2.8822577102        0.9546323420        2.3464640610  CLST      67              1.0000000000
       332        67  DCM       H1             -1.9040406012        1.0326789561        2.8663200773  CLST      67              1.0000000000
       333        67  DCM       H2             -3.7055736762        1.3432945262        2.9829394691  CLST      67              1.0000000000
       334        67  DCM       CL1            -2.8178746446        1.9069250783        0.8349455094  CLST      67              1.0000000000
       335        67  DCM       CL2            -3.2021977420       -0.7623579771        1.9671627693  CLST      67              1.0000000000
       336        68  DCM       C               1.2473343686       -1.2981352714        1.4015776875  CLST      68              1.0000000000
       337        68  DCM       H1              0.1918438172       -1.6431276444        1.4054345746  CLST      68              1.0000000000
       338        68  DCM       H2              1.8016500803       -1.7061556210        2.2733955131  CLST      68              1.0000000000
       339        68  DCM       CL1             2.0356392854       -1.8500409510       -0.1040732714  CLST      68              1.0000000000
       340        68  DCM       CL2             1.2777687013        0.4867923215        1.4781036041  CLST      68              1.0000000000
       341        69  DCM       C               1.5445574018       -0.5705387329        1.6951868649  CLST      69              1.0000000000
       342        69  DCM       H1              0.5746131559       -0.5480000735        1.1539486920  CLST      69              1.0000000000
       343        69  DCM       H2              1.3875178592       -0.4742051011        2.7900060700  CLST      69              1.0000000000
       344        69  DCM       CL1             2.3671666824       -2.1206062124        1.3536614027  CLST      69              1.0000000000
       345        69  DCM       CL2             2.5593081569        0.7862609907        1.1260647229  CLST      69              1.0000000000
       346        70  DCM       C               3.0217128812        2.4138146018        0.4527945560  CLST      70              1.0000000000
       347        70  DCM       H1              3.5559207973        2.7119235715       -0.4726622156  CLST      70              1.0000000000
       348        70  DCM       H2              1.9221103906        2.3967347370        0.2906674573  CLST      70              1.0000000000
       349        70  DCM       CL1             3.5647015710        0.7808413623        0.9358897203  CLST      70              1.0000000000
       350        70  DCM       CL2             3.3987134270        3.5843636880        1.7496765899  CLST      70              1.0000000000
       351        71  DCM       C              -1.8456478671       -0.8808220402        1.9428551373  CLST      71              1.0000000000
       352        71  DCM       H1             -1.1459887653       -0.8767941101        2.8052826487  CLST      71              1.0000000000
       353        71  DCM       H2             -1.8588392900       -1.8724919007        1.4432879027  CLST      71              1.0000000000
       354        71  DCM       CL1            -3.4924431264       -0.5040775632        2.5293079033  CLST      71              1.0000000000
       355        71  DCM       CL2            -1.3205803631        0.3558937565        0.7632327409  CLST      71              1.0000000000
       356        72  DCM       C              -0.9234833005       -0.7793692595       -0.9588872937  CLST      72              1.0000000000
       357        72  DCM       H1             -1.7211986519       -0.0137767913       -0.8701619877  CLST      72              1.0000000000
       358        72  DCM       H2              0.0524156726       -0.3740750237       -0.6226548370  CLST      72              1.0000000000
       359        72  DCM       CL1            -1.3506340377       -2.1926315750        0.0465911533  CLST      72              1.0000000000
       360        72  DCM       CL2            -0.7892735522       -1.2754429817       -2.6666954870  CLST      72              1.0000000000
       361        73  DCM       C              -1.9224492108       -0.4559313883        4.3733866762  CLST      73              1.0000000000
       362        73  DCM       H1             -2.1123482584        0.2933231304        5.1701740794  CLST      73              1.0000000000
       363        73  DCM       H2             -1.9407245078        0.0169642787        3.3697253744  CLST      73              1.0000000000
       364        73  DCM       CL1            -0.3218164387       -1.1957639356        4.6441222706  CLST      73              1.0000000000
       365        73  DCM       CL2            -3.1882056508       -1.7097674248        4.4465260325  CLST      73              1.0000000000
       366        74  DCM       C              -3.2117277169       -2.6089561098        1.3102496849  CLST      74              1.0000000000
       367        74  DCM       H1             -2.7828781867       -3.5257668977        1.7651916650  CLST      74              1.0000000000
       368        74  DCM       H2             -4.0436773653       -2.2132190159        1.9300738112  CLST      74              1.0000000000
       369        74  DCM       CL1            -1.9370032914       -1.3650250972        1.1950046922  CLST      74              1.0000000000
       370        74  DCM       CL2            -3.8330103379       -3.0018600368       -0.3165409732  CLST      74              1.0000000000
       371        75  DCM       C               2.7790071406        2.6984047865       -2.4605502680  CLST      75              1.0000000000
       372        75  DCM       H1              3.6556666793        2.0417955945       -2.2764384085  CLST      75              1.0000000000
       373        75  DCM       H2              2.5956226287        3.3666661127       -1.5950268000  CLST      75              1.0000000000
       374        75  DCM       CL1             3.0863005383        3.6972848362       -3.9106284395  CLST      75              1.0000000000
       375        75  DCM       CL2             1.3333897001        1.6816410889       -2.7215927139  CLST      75              1.0000000000
       376        76  DCM       C               1.9284749670        2.0548421708        2.4664724120  CLST      76              1.0000000000
       377        76  DCM       H1              1.9304662714        0.9443776304        2.4459170793  CLST      76              1.0000000000
       378        76  DCM       H2              2.1916906227        2.4747075707        1.4723949090  CLST      76              1.0000000000
       379        76  DCM       CL1             3.1238562066        2.6153229695        3.6721339731  CLST      76              1.0000000000
       380        76  DCM       CL2             0.2960135444        2.6233471127        2.9188519205  CLST      76              1.0000000000
       381        77  DCM       C               2.0122547424       -2.5634007361       -2.4697810576  CLST      77              1.0000000000
       382        77  DCM       H1              1.3250550894       -3.4113049889       -2.6744502841  CLST      77              1.0000000000
       383        77  DCM       H2              2.9130191487       -2.9040675844       -1.9162139348  CLST      77              1.0000000000
       384        77  DCM       CL1             2.5244086291       -1.8419764375       -4.0237159481  CLST      77              1.0000000000
       385        77  DCM       CL2             1.1523657411       -1.3451499062       -1.4852419531  CLST      77              1.0000000000
       386        78  DCM       C              -2.3090070574       -2.9192849125       -2.8359154310  CLST      78              1.0000000000
       387        78  DCM       H1             -2.4132762952       -2.3278869437       -3.7686087943  CLST      78              1.0000000000
       388        78  DCM       H2             -3.2118892836       -3.5394175472       -2.6564905276  CLST      78              1.0000000000
       389        78  DCM       CL1            -0.8817935008       -3.9841462867       -2.9837198489  CLST      78              1.0000000000
       390        78  DCM       CL2            -2.0871075042       -1.7987432745       -1.4639850940  CLST      78              1.0000000000
       391        79  DCM       C               0.4196239611       -2.1582986056        0.4595306486  CLST      79              1.0000000000
       392        79  DCM       H1              0.7696996931       -2.3563676481       -0.5758330091  CLST      79              1.0000000000
       393        79  DCM       H2              0.5307983269       -3.0585192696        1.1003516049  CLST      79              1.0000000000
       394        79  DCM       CL1             1.3873905690       -0.8271768387        1.1542177725  CLST      79              1.0000000000
       395        79  DCM       CL2            -1.3031596150       -1.6884610915        0.4082150609  CLST      79              1.0000000000
       396        80  DCM       C               2.3468056394       -0.9469320267        2.9077255151  CLST      80              1.0000000000
       397        80  DCM       H1              2.5545335890        0.1203933875        3.1329312903  CLST      80              1.0000000000
       398        80  DCM       H2              2.4730278060       -1.5787215741        3.8113672034  CLST      80              1.0000000000
       399        80  DCM       CL1             0.6672070366       -1.1012341706        2.3185797499  CLST      80              1.0000000000
       400        80  DCM       CL2             3.4879374477       -1.5061762717        1.6536259093  CLST      80              1.0000000000
       401        81  DCM       C              -0.7489431337        2.9191037728        1.6977659440  CLST      81              1.0000000000
       402        81  DCM       H1             -1.7714157219        2.5133881405        1.8441478515  CLST      81              1.0000000000
       403        81  DCM       H2             -0.4388894518        3.5195254188        2.5775895032  CLST      81              1.0000000000
       404        81  DCM       CL1             0.3947151875        1.5642828795        1.4802507361  CLST      81              1.0000000000
       405        81  DCM       CL2            -0.7316749419        3.9627200700        0.2482814695  CLST      81              1.0000000000
       406        82  DCM       C               0.7139643349        2.6820098277       -0.0214974441  CLST      82              1.0000000000
       407        82  DCM       H1              0.9150901024        2.5044536308        1.0561286207  CLST      82              1.0000000000
       408        82  DCM       H2             -0.3335135258        2.4194777210       -0.2798788498  CLST      82              1.0000000000
       409        82  DCM       CL1             0.9885659404        4.4103348019       -0.3894796387  CLST      82              1.0000000000
       410        82  DCM       CL2             1.8237323948        1.6717991049       -0.9931311293  CLST      82              1.0000000000
       411        83  DCM       C               1.2649721791        0.0018434728        2.6555252817  CLST      83              1.0000000000
       412        83  DCM       H1              0.6252703364        0.7728123743        3.1358792498  CLST      83              1.0000000000
       413        83  DCM       H2              1.6776168506        0.3657621051        1.6934648905  CLST      83              1.0000000000
       414        83  DCM       CL1             2.6229405469       -0.3907178727        3.7456879662  CLST      83              1.0000000000
       415        83  DCM       CL2             0.2843238051       -1.4615373822        2.3572582234  CLST      83              1.0000000000
       416        84  DCM       C              -1.9801552364        2.2261615170       -2.3222444626  CLST      84              1.0000000000
       417        84  DCM       H1             -1.2983140975        2.5509933936       -1.5073057928  CLST      84              1.0000000000
       418        84  DCM       H2             -2.6476475493        1.4082866596       -1.9798498638  CLST      84              1.0000000000
       419        84  DCM       CL1            -2.9770787790        3.6181473866       -2.8335115150  CLST      84              1.0000000000
       420        84  DCM       CL2            -1.0059954188        1.6419403016       -3.7028492412  CLST      84              1.0000000000
       421        85  DCM       C               2.8662623858        2.7033340396       -0.3154847664  CLST      85              1.0000000000
       422        85  DCM       H1              3.5740329721        3.2507492707        0.3404186942  CLST      85              1.0000000000
       423        85  DCM       H2              2.5914485997        1.7206765830        0.1244993599  CLST      85              1.0000000000
       424        85  DCM       CL1             1.3863666432        3.6816663429       -0.5340826830  CLST      85              1.0000000000
       425        85  DCM       CL2             3.6392375783        2.4322130754       -1.9007083701  CLST      85              1.0000000000
       426        86  DCM       C               1.6236813267        2.8616619306        2.3291307721  CLST      86              1.0000000000
       427        86  DCM       H1              1.7472737910        3.4581139702        1.4012164179  CLST      86              1.0000000000
       428        86  DCM       H2              0.9479129309        3.3717318259        3.0491472786  CLST      86              1.0000000000
       429        86  DCM       CL1             0.9306458081        1.2702881853        1.9049188047  CLST      86              1.0000000000
       430        86  DCM       CL2             3.2263031375        2.6481470394        3.0868857933  CLST      86              1.0000000000
       431        87  DCM       C               1.8885583451       -3.0605898477       -1.7235583239  CLST      87              1.0000000000
       432        87  DCM       H1              0.9310381892       -2.4992550157       -1.7584374023  CLST      87              1.0000000000
       433        87  DCM       H2              1.7845996362       -4.0586178776       -2.1995684457  CLST      87              1.0000000000
       434        87  DCM       CL1             2.3692716248       -3.2801293434       -0.0176203062  CLST      87              1.0000000000
       435        87  DCM       CL2             3.1447527942       -2.1287502261       -2.5891742072  CLST      87              1.0000000000
       436        88  DCM       C               3.3428937465        0.7564339983       -0.9782882604  CLST      88              1.0000000000
       437        88  DCM       H1              3.3937019943        0.7317816394       -2.0872100222  CLST      88              1.0000000000
       438        88  DCM       H2              3.9571694429        1.5849982805       -0.5664807521  CLST      88              1.0000000000
       439        88  DCM       CL1             1.6426642616        0.9973894295       -0.4837170403  CLST      88              1.0000000000
       440        88  DCM       CL2             3.9528503395       -0.7947947697       -0.3316936779  CLST      88              1.0000000000
       441        89  DCM       C               2.0698567678        2.3413974089       -0.2001291072  CLST      89              1.0000000000
       442        89  DCM       H1              2.8775024116        3.1013629748       -0.2481041324  CLST      89              1.0000000000
       443        89  DCM       H2              1.2401472010        2.5991075770       -0.8905893731  CLST      89              1.0000000000
       444        89  DCM       CL1             2.7398852872        0.7544626910       -0.6647970655  CLST      89              1.0000000000
       445        89  DCM       CL2             1.4364566125        2.2650486972        1.4686657078  CLST      89              1.0000000000
       446        90  DCM       C              -1.6437471240       -2.8284671522       -0.9744868758  CLST      90              1.0000000000
       447        90  DCM       H1             -2.3049988598       -3.6078742652       -0.5412315004  CLST      90              1.0000000000
       448        90  DCM       H2             -1.9021250396       -2.6338798516       -2.0370846868  CLST      90              1.0000000000
       449        90  DCM       CL1            -1.8387417433       -1.3170227703       -0.0404814756  CLST      90              1.0000000000
       450        90  DCM       CL2             0.0548285583       -3.3790104823       -0.8817993034  CLST      90              1.0000000000
       451        91  DCM       C              -1.6888802508       -1.4211685345        0.6569534406  CLST      91              1.0000000000
       452        91  DCM       H1             -0.9444589914       -1.9108698817        1.3171866999  CLST      91              1.0000000000
       453        91  DCM       H2             -2.4615269330       -0.8919966057        1.2537488257  CLST      91              1.0000000000
       454        91  DCM       CL1            -0.8486662863       -0.2403102464       -0.3888569182  CLST      91              1.0000000000
       455        91  DCM       CL2            -2.4749300887       -2.6715222499       -0.3483254463  CLST      91              1.0000000000
       456        92  DCM       C              -3.2464454858       -0.7199407624       -2.3142057971  CLST      92              1.0000000000
       457        92  DCM       H1             -3.1480615902       -0.4845024304       -1.2335489190  CLST      92              1.0000000000
       458        92  DCM       H2             -4.1303580309       -0.2110400127       -2.7533502850  CLST      92              1.0000000000
       459        92  DCM       CL1            -1.7745027638       -0.1652719124       -3.1647459564  CLST      92              1.0000000000
       460        92  DCM       CL2            -3.4403339932       -2.4863453578       -2.5088714756  CLST      92              1.0000000000
