* PRE_MLPOT:MONOMER_REPACK
*  DATE:     6/28/26      2: 3:18      CREATED BY USER: boittier
*
       475  EXT
         1         1  DCM       C              -0.7919177457       -1.7076600364        2.4027268259  CLST      1               1.0000000000
         2         1  DCM       H1             -1.4872373085       -2.4510836805        2.8473248884  CLST      1               1.0000000000
         3         1  DCM       H2             -0.7326468643       -0.7919127572        3.0277048066  CLST      1               1.0000000000
         4         1  DCM       CL1             0.8358057350       -2.4306950268        2.2835255690  CLST      1               1.0000000000
         5         1  DCM       CL2            -1.3806147933       -1.2699506899        0.7751841344  CLST      1               1.0000000000
         6         2  DCM       C              -3.2377751563       -0.2760864227       -0.6053979945  CLST      2               1.0000000000
         7         2  DCM       H1             -3.7145115401       -1.0115278483       -1.2846763700  CLST      2               1.0000000000
         8         2  DCM       H2             -3.3951029748        0.7602985323       -0.9703464338  CLST      2               1.0000000000
         9         2  DCM       CL1            -3.9603424677       -0.4380121333        1.0199347739  CLST      2               1.0000000000
        10         2  DCM       CL2            -1.4852432083       -0.6136653992       -0.5306990323  CLST      2               1.0000000000
        11         3  DCM       C               0.5337714448       -0.8783347000       -0.7270164329  CLST      3               1.0000000000
        12         3  DCM       H1              0.0484199432       -0.2054806374       -1.4652960884  CLST      3               1.0000000000
        13         3  DCM       H2             -0.0861673058       -0.9768228366        0.1891919781  CLST      3               1.0000000000
        14         3  DCM       CL1             0.7482237689       -2.4936132045       -1.4638859248  CLST      3               1.0000000000
        15         3  DCM       CL2             2.1273112681       -0.2018695685       -0.2798366784  CLST      3               1.0000000000
        16         4  DCM       C              -1.9522373091       -0.2303406357       -2.0570965383  CLST      4               1.0000000000
        17         4  DCM       H1             -2.6742378094       -0.7774034050       -1.4148136362  CLST      4               1.0000000000
        18         4  DCM       H2             -1.8518367301       -0.7168445362       -3.0504816148  CLST      4               1.0000000000
        19         4  DCM       CL1            -2.5284433518        1.4463486880       -2.2850149907  CLST      4               1.0000000000
        20         4  DCM       CL2            -0.3584732994       -0.2198480054       -1.2496702391  CLST      4               1.0000000000
        21         5  DCM       C               0.6243110933        0.8563345131        0.7052889442  CLST      5               1.0000000000
        22         5  DCM       H1             -0.1323561995        1.6605444245        0.8165291505  CLST      5               1.0000000000
        23         5  DCM       H2              1.2931335052        1.0567456373       -0.1557597153  CLST      5               1.0000000000
        24         5  DCM       CL1             1.6036951453        0.7768391640        2.1972002636  CLST      5               1.0000000000
        25         5  DCM       CL2            -0.2160651522       -0.6985468994        0.4437450860  CLST      5               1.0000000000
        26         6  DCM       C              -0.2718471218        1.5535273745        0.0016596159  CLST      6               1.0000000000
        27         6  DCM       H1             -1.3097403009        1.7536779408        0.3373919354  CLST      6               1.0000000000
        28         6  DCM       H2              0.4660835085        2.0889978279        0.6331592419  CLST      6               1.0000000000
        29         6  DCM       CL1             0.0353704490       -0.2015660629        0.1061881826  CLST      6               1.0000000000
        30         6  DCM       CL2            -0.0912311781        2.1093499843       -1.6847523655  CLST      6               1.0000000000
        31         7  DCM       C              -1.1120358839       -2.8672866528       -2.7247137234  CLST      7               1.0000000000
        32         7  DCM       H1             -0.5467975645       -3.8034118715       -2.5369409666  CLST      7               1.0000000000
        33         7  DCM       H2             -0.4876024170       -2.1296823030       -3.2697975404  CLST      7               1.0000000000
        34         7  DCM       CL1            -1.6165083745       -2.1661913467       -1.1601217264  CLST      7               1.0000000000
        35         7  DCM       CL2            -2.5521906135       -3.2457316103       -3.7104938915  CLST      7               1.0000000000
        36         8  DCM       C              -2.0560358660        0.0192324855        2.2655860347  CLST      8               1.0000000000
        37         8  DCM       H1             -2.0151022511       -1.0802260101        2.1266263748  CLST      8               1.0000000000
        38         8  DCM       H2             -1.2549610699        0.3651921322        2.9526308439  CLST      8               1.0000000000
        39         8  DCM       CL1            -1.8419929298        0.8084450385        0.6764264371  CLST      8               1.0000000000
        40         8  DCM       CL2            -3.6472166881        0.4523728718        2.9560955858  CLST      8               1.0000000000
        41         9  DCM       C               2.4465986583       -2.5056098267        0.0602208253  CLST      9               1.0000000000
        42         9  DCM       H1              2.5756480118       -3.5666147072        0.3550657164  CLST      9               1.0000000000
        43         9  DCM       H2              1.7115717061       -2.4037304783       -0.7669896312  CLST      9               1.0000000000
        44         9  DCM       CL1             1.8587605820       -1.5838715042        1.4740576050  CLST      9               1.0000000000
        45         9  DCM       CL2             4.0254384193       -1.8671313634       -0.4815393110  CLST      9               1.0000000000
        46        10  DCM       C               1.5971488259        2.3913999077        2.2280109046  CLST      10              1.0000000000
        47        10  DCM       H1              0.7258545888        1.7456292169        1.9884012038  CLST      10              1.0000000000
        48        10  DCM       H2              1.3559729860        3.4639418631        2.0716688691  CLST      10              1.0000000000
        49        10  DCM       CL1             2.0547195454        2.1474265904        3.9377122507  CLST      10              1.0000000000
        50        10  DCM       CL2             2.9592974168        1.9464798069        1.1637541154  CLST      10              1.0000000000
        51        11  DCM       C               2.7267382543       -2.9748266411       -0.5558142406  CLST      11              1.0000000000
        52        11  DCM       H1              3.4476113040       -3.3984661731        0.1733292905  CLST      11              1.0000000000
        53        11  DCM       H2              3.0300276454       -1.9555188195       -0.8742288336  CLST      11              1.0000000000
        54        11  DCM       CL1             2.6629372655       -4.0409026145       -1.9893361594  CLST      11              1.0000000000
        55        11  DCM       CL2             1.1167476974       -2.8871558899        0.2135330086  CLST      11              1.0000000000
        56        12  DCM       C              -1.9283657101        2.5406480714       -0.0012392394  CLST      12              1.0000000000
        57        12  DCM       H1             -2.2160813704        2.4143106193       -1.0651376463  CLST      12              1.0000000000
        58        12  DCM       H2             -0.8822270847        2.2113511765        0.1675502810  CLST      12              1.0000000000
        59        12  DCM       CL1            -2.0736919381        4.2625841325        0.4466193076  CLST      12              1.0000000000
        60        12  DCM       CL2            -3.0198705311        1.5644033667        1.0194839479  CLST      12              1.0000000000
        61        13  DCM       C              -0.7038842478       -0.3814771848       -1.0254082314  CLST      13              1.0000000000
        62        13  DCM       H1             -0.5235927569       -1.4770317159       -1.0454956995  CLST      13              1.0000000000
        63        13  DCM       H2             -0.4073173221        0.0502215618       -0.0467287193  CLST      13              1.0000000000
        64        13  DCM       CL1             0.2605964675        0.3958668075       -2.3134377222  CLST      13              1.0000000000
        65        13  DCM       CL2            -2.4432905073       -0.0690715694       -1.2971179816  CLST      13              1.0000000000
        66        14  DCM       C               1.1365991582       -1.9411607090        2.5265791980  CLST      14              1.0000000000
        67        14  DCM       H1              2.0428944521       -1.3948721442        2.1891238710  CLST      14              1.0000000000
        68        14  DCM       H2              0.3813665074       -1.2425468081        2.9438683314  CLST      14              1.0000000000
        69        14  DCM       CL1             0.4241940551       -2.7974747967        1.1290116173  CLST      14              1.0000000000
        70        14  DCM       CL2             1.5991249345       -3.1218366163        3.7878603045  CLST      14              1.0000000000
        71        15  DCM       C              -1.5296592450        2.1387723587        1.9708194353  CLST      15              1.0000000000
        72        15  DCM       H1             -1.6552652122        2.6113570352        0.9745618279  CLST      15              1.0000000000
        73        15  DCM       H2             -1.4636160034        1.0339779751        1.8829149740  CLST      15              1.0000000000
        74        15  DCM       CL1            -0.0260312676        2.7550108617        2.7156205868  CLST      15              1.0000000000
        75        15  DCM       CL2            -2.9338704235        2.5617399641        2.9947839199  CLST      15              1.0000000000
        76        16  DCM       C              -0.0075451618        3.0556552644       -3.1537470392  CLST      16              1.0000000000
        77        16  DCM       H1              0.9141591972        2.6184286511       -2.7155264011  CLST      16              1.0000000000
        78        16  DCM       H2              0.0625260599        4.1615915394       -3.2044936412  CLST      16              1.0000000000
        79        16  DCM       CL1            -0.2394214052        2.4080896221       -4.8034381183  CLST      16              1.0000000000
        80        16  DCM       CL2            -1.4047401380        2.6214860599       -2.1320287073  CLST      16              1.0000000000
        81        17  DCM       C               0.5567749784        0.8698613549       -3.1334295891  CLST      17              1.0000000000
        82        17  DCM       H1              1.0135455238        0.3135655723       -2.2875770877  CLST      17              1.0000000000
        83        17  DCM       H2              0.3658940764        0.1987759250       -3.9974458928  CLST      17              1.0000000000
        84        17  DCM       CL1             1.6722339309        2.1660631663       -3.6437133903  CLST      17              1.0000000000
        85        17  DCM       CL2            -0.9881999544        1.5886127898       -2.5941641403  CLST      17              1.0000000000
        86        18  DCM       C               1.3298579999        2.7766522942        1.0851574889  CLST      18              1.0000000000
        87        18  DCM       H1              2.0604941394        2.0176848922        1.4358352204  CLST      18              1.0000000000
        88        18  DCM       H2              1.8309336972        3.7462837430        0.8801027148  CLST      18              1.0000000000
        89        18  DCM       CL1             0.5606658041        2.1888603476       -0.4173434522  CLST      18              1.0000000000
        90        18  DCM       CL2             0.0881594500        3.0163706717        2.3493066762  CLST      18              1.0000000000
        91        19  DCM       C               1.3661152079        2.8164402624        2.7482800562  CLST      19              1.0000000000
        92        19  DCM       H1              1.7538301056        2.9213052631        1.7134682221  CLST      19              1.0000000000
        93        19  DCM       H2              2.0035320249        3.3712372735        3.4686702759  CLST      19              1.0000000000
        94        19  DCM       CL1            -0.2951823939        3.4643665238        2.8177845254  CLST      19              1.0000000000
        95        19  DCM       CL2             1.3559875371        1.0893834303        3.1912454915  CLST      19              1.0000000000
        96        20  DCM       C              -0.9539614441        1.8464603773        1.7261022090  CLST      20              1.0000000000
        97        20  DCM       H1             -0.9185197823        2.5743570190        2.5632521508  CLST      20              1.0000000000
        98        20  DCM       H2              0.0309693145        1.7781116847        1.2214723358  CLST      20              1.0000000000
        99        20  DCM       CL1            -1.3910632079        0.2375799054        2.3704510980  CLST      20              1.0000000000
       100        20  DCM       CL2            -2.1802685173        2.3722011700        0.5387720835  CLST      20              1.0000000000
       101        21  DCM       C               1.9645179420        0.6486760992       -0.6319138336  CLST      21              1.0000000000
       102        21  DCM       H1              2.3058999884        0.8761674246       -1.6641952329  CLST      21              1.0000000000
       103        21  DCM       H2              2.7764830731        0.1786051861       -0.0385152519  CLST      21              1.0000000000
       104        21  DCM       CL1             1.4694952250        2.1675367939        0.1680604710  CLST      21              1.0000000000
       105        21  DCM       CL2             0.5760773223       -0.4725794077       -0.7089459441  CLST      21              1.0000000000
       106        22  DCM       C              -3.1965993421       -0.9750589750       -1.5115453226  CLST      22              1.0000000000
       107        22  DCM       H1             -2.8618656914       -1.5086265087       -0.5984739911  CLST      22              1.0000000000
       108        22  DCM       H2             -2.3298973720       -0.6345557112       -2.1184907676  CLST      22              1.0000000000
       109        22  DCM       CL1            -4.1664556747        0.4456492651       -1.0291351067  CLST      22              1.0000000000
       110        22  DCM       CL2            -4.1932741714       -2.0844009211       -2.4937329851  CLST      22              1.0000000000
       111        23  DCM       C               2.4974949077        0.7435380594       -0.1217646694  CLST      23              1.0000000000
       112        23  DCM       H1              3.2758062147        0.8368827127       -0.9082993870  CLST      23              1.0000000000
       113        23  DCM       H2              2.5837264335        1.5601993404        0.6259901971  CLST      23              1.0000000000
       114        23  DCM       CL1             0.8851731253        0.8251904679       -0.8895238781  CLST      23              1.0000000000
       115        23  DCM       CL2             2.6961883839       -0.8272759369        0.7084730959  CLST      23              1.0000000000
       116        24  DCM       C              -0.2639346257       -1.5931931330        2.4553981865  CLST      24              1.0000000000
       117        24  DCM       H1             -1.0927164586       -1.2980040132        1.7822057663  CLST      24              1.0000000000
       118        24  DCM       H2              0.5073839286       -0.7960106476        2.5039041579  CLST      24              1.0000000000
       119        24  DCM       CL1            -0.9190281111       -1.8782490039        4.0914192372  CLST      24              1.0000000000
       120        24  DCM       CL2             0.4785080418       -3.0925455210        1.8330396340  CLST      24              1.0000000000
       121        25  DCM       C               0.0394281676       -0.8571448284        1.9918064609  CLST      25              1.0000000000
       122        25  DCM       H1              1.0763797918       -0.9936572176        1.6225037711  CLST      25              1.0000000000
       123        25  DCM       H2              0.0314346456       -0.3448847936        2.9768987581  CLST      25              1.0000000000
       124        25  DCM       CL1            -0.8686807935        0.1249673652        0.8082497229  CLST      25              1.0000000000
       125        25  DCM       CL2            -0.7303966725       -2.4586912303        2.1658498047  CLST      25              1.0000000000
       126        26  DCM       C               0.9437496321       -2.7051943935       -2.6001805681  CLST      26              1.0000000000
       127        26  DCM       H1              1.4122878650       -1.9791051151       -3.2986997949  CLST      26              1.0000000000
       128        26  DCM       H2              1.3698164487       -3.7209519677       -2.7364356728  CLST      26              1.0000000000
       129        26  DCM       CL1             1.2400989044       -2.1696581280       -0.9203759027  CLST      26              1.0000000000
       130        26  DCM       CL2            -0.8145263873       -2.7635564585       -2.9177456545  CLST      26              1.0000000000
       131        27  DCM       C               1.2965428250        0.6269291636        0.3961842620  CLST      27              1.0000000000
       132        27  DCM       H1              2.0226470747        1.0448767991        1.1253941243  CLST      27              1.0000000000
       133        27  DCM       H2              1.2767600888        1.2272750767       -0.5371851645  CLST      27              1.0000000000
       134        27  DCM       CL1            -0.3347803846        0.6415056775        1.1234852288  CLST      27              1.0000000000
       135        27  DCM       CL2             1.7649902068       -1.0511382444       -0.0050871653  CLST      27              1.0000000000
       136        28  DCM       C              -2.9455660716       -0.2537005145       -1.5889123424  CLST      28              1.0000000000
       137        28  DCM       H1             -2.5555901604       -0.6148833109       -0.6157853371  CLST      28              1.0000000000
       138        28  DCM       H2             -3.2677881846        0.8056708997       -1.5150845444  CLST      28              1.0000000000
       139        28  DCM       CL1            -4.3429495716       -1.2642504806       -2.0550275817  CLST      28              1.0000000000
       140        28  DCM       CL2            -1.6604584644       -0.3893965550       -2.8228457605  CLST      28              1.0000000000
       141        29  DCM       C               1.8203023980       -1.6502542598       -1.1706296026  CLST      29              1.0000000000
       142        29  DCM       H1              1.0164788270       -1.8153585104       -0.4256015458  CLST      29              1.0000000000
       143        29  DCM       H2              1.3954800489       -1.4890588102       -2.1830622465  CLST      29              1.0000000000
       144        29  DCM       CL1             2.7634339680       -0.2108670657       -0.6899220494  CLST      29              1.0000000000
       145        29  DCM       CL2             2.8818234307       -3.0846177551       -1.2131724330  CLST      29              1.0000000000
       146        30  DCM       C               1.2392323620       -0.2684599585       -2.1578415732  CLST      30              1.0000000000
       147        30  DCM       H1              0.7214573271       -0.2078099347       -3.1379776635  CLST      30              1.0000000000
       148        30  DCM       H2              1.0893900003       -1.2615369156       -1.6837022478  CLST      30              1.0000000000
       149        30  DCM       CL1             2.9887755053       -0.0047993048       -2.4075027036  CLST      30              1.0000000000
       150        30  DCM       CL2             0.5838047771        0.9925669940       -1.0744713286  CLST      30              1.0000000000
       151        31  DCM       C               2.0100665801        1.9700525453       -0.9904312248  CLST      31              1.0000000000
       152        31  DCM       H1              2.4876319638        1.5541022750       -1.9029918699  CLST      31              1.0000000000
       153        31  DCM       H2              2.3933222232        1.4746267475       -0.0731213519  CLST      31              1.0000000000
       154        31  DCM       CL1             2.3592583399        3.7191183289       -0.8964011447  CLST      31              1.0000000000
       155        31  DCM       CL2             0.2461701683        1.7148062587       -1.0925173746  CLST      31              1.0000000000
       156        32  DCM       C               1.6672906870       -2.1464878539        1.9511548213  CLST      32              1.0000000000
       157        32  DCM       H1              2.4605996420       -2.9102320638        1.8145584276  CLST      32              1.0000000000
       158        32  DCM       H2              0.6579135918       -2.6016893348        1.8701418298  CLST      32              1.0000000000
       159        32  DCM       CL1             1.8484417585       -1.4033834316        3.5668918733  CLST      32              1.0000000000
       160        32  DCM       CL2             1.8453275487       -0.9029593840        0.6815431961  CLST      32              1.0000000000
       161        33  DCM       C              -0.1990790540       -0.0208154248       -2.2286375435  CLST      33              1.0000000000
       162        33  DCM       H1             -0.0679848576       -1.1241067400       -2.2074167402  CLST      33              1.0000000000
       163        33  DCM       H2             -0.3737548941        0.3813899336       -1.2092407813  CLST      33              1.0000000000
       164        33  DCM       CL1             1.2732738345        0.7333527731       -2.9086475465  CLST      33              1.0000000000
       165        33  DCM       CL2            -1.6110844917        0.3771873053       -3.2478730305  CLST      33              1.0000000000
       166        34  DCM       C              -1.4148339328        0.7593073495        1.5473450122  CLST      34              1.0000000000
       167        34  DCM       H1             -0.4889984015        1.3170956825        1.7992732574  CLST      34              1.0000000000
       168        34  DCM       H2             -1.5147129351        0.6287822046        0.4500675904  CLST      34              1.0000000000
       169        34  DCM       CL1            -1.3592104189       -0.8491045008        2.3213265876  CLST      34              1.0000000000
       170        34  DCM       CL2            -2.8223614454        1.6722740854        2.1565356408  CLST      34              1.0000000000
       171        35  DCM       C               1.8926012931       -1.0286108897       -0.8154466769  CLST      35              1.0000000000
       172        35  DCM       H1              2.0079704343       -2.1158908407       -0.6199364107  CLST      35              1.0000000000
       173        35  DCM       H2              1.5763653695       -0.4893804684        0.1018506360  CLST      35              1.0000000000
       174        35  DCM       CL1             3.4616411951       -0.3709200473       -1.3625641242  CLST      35              1.0000000000
       175        35  DCM       CL2             0.6583128812       -0.7883663775       -2.0865469263  CLST      35              1.0000000000
       176        36  DCM       C              -2.8694393331        2.4869141449       -2.2107395510  CLST      36              1.0000000000
       177        36  DCM       H1             -2.0652001521        1.7297075947       -2.0985900922  CLST      36              1.0000000000
       178        36  DCM       H2             -2.4622028632        3.5167321362       -2.1253830002  CLST      36              1.0000000000
       179        36  DCM       CL1            -3.6299497818        2.2920383407       -3.8167467199  CLST      36              1.0000000000
       180        36  DCM       CL2            -4.0880794458        2.2367345730       -0.9280761485  CLST      36              1.0000000000
       181        37  DCM       C               2.3623508981       -2.8399531875       -0.5433107031  CLST      37              1.0000000000
       182        37  DCM       H1              1.9356758382       -2.2592672506        0.3024331479  CLST      37              1.0000000000
       183        37  DCM       H2              2.5368940225       -3.8963240123       -0.2505695768  CLST      37              1.0000000000
       184        37  DCM       CL1             1.2205004411       -2.7948581604       -1.9197964487  CLST      37              1.0000000000
       185        37  DCM       CL2             3.9202128910       -2.1036704566       -1.0222582159  CLST      37              1.0000000000
       186        38  DCM       C              -2.5053960604       -1.1392988429       -2.9149348732  CLST      38              1.0000000000
       187        38  DCM       H1             -2.3284882366       -1.8725019047       -3.7268448683  CLST      38              1.0000000000
       188        38  DCM       H2             -2.8022437621       -0.1548015838       -3.3323966597  CLST      38              1.0000000000
       189        38  DCM       CL1            -3.8149778570       -1.7433672211       -1.8614056711  CLST      38              1.0000000000
       190        38  DCM       CL2            -0.9992414241       -0.9556212538       -1.9713249181  CLST      38              1.0000000000
       191        39  DCM       C              -0.5702749668       -1.8188097570        1.4695205731  CLST      39              1.0000000000
       192        39  DCM       H1             -0.1631128600       -1.5608456177        0.4689600049  CLST      39              1.0000000000
       193        39  DCM       H2             -1.1832193135       -0.9881199344        1.8785449380  CLST      39              1.0000000000
       194        39  DCM       CL1            -1.5962696086       -3.2748444393        1.3223053375  CLST      39              1.0000000000
       195        39  DCM       CL2             0.7893903698       -2.1398487451        2.5848060962  CLST      39              1.0000000000
       196        40  DCM       C               3.6741912429       -1.6822294883       -0.1268545552  CLST      40              1.0000000000
       197        40  DCM       H1              3.0093364757       -1.3768931752        0.7088305626  CLST      40              1.0000000000
       198        40  DCM       H2              4.5027541666       -2.3257702002        0.2367279583  CLST      40              1.0000000000
       199        40  DCM       CL1             2.7148739720       -2.5935633720       -1.3270712351  CLST      40              1.0000000000
       200        40  DCM       CL2             4.3652184369       -0.2214234388       -0.8900830082  CLST      40              1.0000000000
       201        41  DCM       C               0.1845868684       -2.4942211074       -2.3265418348  CLST      41              1.0000000000
       202        41  DCM       H1             -0.4156155976       -1.5654932790       -2.4296269163  CLST      41              1.0000000000
       203        41  DCM       H2              1.1488915471       -2.2930938154       -1.8136395133  CLST      41              1.0000000000
       204        41  DCM       CL1            -0.7456027343       -3.6838405261       -1.3691493145  CLST      41              1.0000000000
       205        41  DCM       CL2             0.5188824063       -3.1536901323       -3.9545596574  CLST      41              1.0000000000
       206        42  DCM       C               2.5666477418        0.4077360444       -2.4000530727  CLST      42              1.0000000000
       207        42  DCM       H1              3.3188942167       -0.3922179885       -2.2557219147  CLST      42              1.0000000000
       208        42  DCM       H2              2.4327413467        0.6463339564       -3.4757397809  CLST      42              1.0000000000
       209        42  DCM       CL1             1.0083598674       -0.1401130178       -1.7230201714  CLST      42              1.0000000000
       210        42  DCM       CL2             3.1264878652        1.8728647067       -1.5487367847  CLST      42              1.0000000000
       211        43  DCM       C              -1.5092895418       -2.4990545995        1.2263386120  CLST      43              1.0000000000
       212        43  DCM       H1             -2.3554590371       -2.1670837702        1.8618101591  CLST      43              1.0000000000
       213        43  DCM       H2             -1.3322891865       -1.7896218871        0.3911883262  CLST      43              1.0000000000
       214        43  DCM       CL1            -1.8926715390       -4.1111306989        0.5590041494  CLST      43              1.0000000000
       215        43  DCM       CL2            -0.0414838773       -2.5932373262        2.2387157810  CLST      43              1.0000000000
       216        44  DCM       C               1.3715828862       -1.1968417741        2.2531639163  CLST      44              1.0000000000
       217        44  DCM       H1              1.4739187675       -1.9914952951        3.0221047916  CLST      44              1.0000000000
       218        44  DCM       H2              0.3091537675       -1.0563393647        1.9626816427  CLST      44              1.0000000000
       219        44  DCM       CL1             2.0023391803        0.3387307001        2.9174717216  CLST      44              1.0000000000
       220        44  DCM       CL2             2.3124238318       -1.6630296180        0.8065037956  CLST      44              1.0000000000
       221        45  DCM       C               2.0848259414        1.4717324076        1.0195029658  CLST      45              1.0000000000
       222        45  DCM       H1              2.8789694182        1.6231971947        0.2579522407  CLST      45              1.0000000000
       223        45  DCM       H2              1.0758700916        1.5385423261        0.5617807194  CLST      45              1.0000000000
       224        45  DCM       CL1             2.2871158055       -0.1431591957        1.7589983120  CLST      45              1.0000000000
       225        45  DCM       CL2             2.2350495301        2.7338649628        2.2739491276  CLST      45              1.0000000000
       226        46  DCM       C               0.5700964033        1.1547397606       -0.5548405309  CLST      46              1.0000000000
       227        46  DCM       H1              1.5052428478        1.5209823919       -1.0254768123  CLST      46              1.0000000000
       228        46  DCM       H2             -0.0176229670        1.9954473191       -0.1280709358  CLST      46              1.0000000000
       229        46  DCM       CL1            -0.4148498695        0.3329107247       -1.7992587646  CLST      46              1.0000000000
       230        46  DCM       CL2             0.9912834464        0.0069391680        0.7509122298  CLST      46              1.0000000000
       231        47  DCM       C               0.5537422057       -0.3141742310        2.8631185647  CLST      47              1.0000000000
       232        47  DCM       H1              0.7066910461        0.7753176935        3.0094383211  CLST      47              1.0000000000
       233        47  DCM       H2              1.5170080205       -0.8638269417        2.9187750231  CLST      47              1.0000000000
       234        47  DCM       CL1            -0.5412572955       -0.9201962948        4.1370990080  CLST      47              1.0000000000
       235        47  DCM       CL2            -0.1809054825       -0.5887315490        1.2577924835  CLST      47              1.0000000000
       236        48  DCM       C               2.8822604857       -2.6352248905        2.7756416175  CLST      48              1.0000000000
       237        48  DCM       H1              2.7100625175       -1.9678536998        3.6459650456  CLST      48              1.0000000000
       238        48  DCM       H2              3.9450829638       -2.9539002105        2.7190566420  CLST      48              1.0000000000
       239        48  DCM       CL1             1.8503160845       -4.0853042557        2.9424074148  CLST      48              1.0000000000
       240        48  DCM       CL2             2.4581662558       -1.7615307587        1.2754485577  CLST      48              1.0000000000
       241        49  DCM       C               1.1512904940       -1.1259874595       -3.3503745275  CLST      49              1.0000000000
       242        49  DCM       H1              1.7553364259       -0.6518894564       -2.5479383321  CLST      49              1.0000000000
       243        49  DCM       H2              0.6263461287       -0.3618269873       -3.9608706478  CLST      49              1.0000000000
       244        49  DCM       CL1             2.2332395754       -2.0745623710       -4.4107435751  CLST      49              1.0000000000
       245        49  DCM       CL2            -0.0615967213       -2.2035045962       -2.6013069926  CLST      49              1.0000000000
       246        50  DCM       C              -0.4361951619       -0.2133437306        3.1440056302  CLST      50              1.0000000000
       247        50  DCM       H1             -1.1664979748       -0.0899038611        2.3175965617  CLST      50              1.0000000000
       248        50  DCM       H2             -0.7595498398        0.3486806017        4.0454689300  CLST      50              1.0000000000
       249        50  DCM       CL1            -0.3001381630       -1.9475842594        3.5521988329  CLST      50              1.0000000000
       250        50  DCM       CL2             1.1527253298        0.4034480698        2.6103013428  CLST      50              1.0000000000
       251        51  DCM       C               1.1601980994        2.8067291307       -0.2761643545  CLST      51              1.0000000000
       252        51  DCM       H1              1.6281944426        2.8602367489        0.7292075265  CLST      51              1.0000000000
       253        51  DCM       H2              1.0217712709        3.8214539104       -0.7044646830  CLST      51              1.0000000000
       254        51  DCM       CL1            -0.4366137035        2.0151966163       -0.1346547167  CLST      51              1.0000000000
       255        51  DCM       CL2             2.2151579215        1.8600149282       -1.3650871383  CLST      51              1.0000000000
       256        52  DCM       C              -2.2369130533       -2.1240950460        0.3593176880  CLST      52              1.0000000000
       257        52  DCM       H1             -1.8337794764       -2.7435782529        1.1883699992  CLST      52              1.0000000000
       258        52  DCM       H2             -1.9383021474       -1.0606661848        0.4757593809  CLST      52              1.0000000000
       259        52  DCM       CL1            -1.5942563467       -2.7462247340       -1.1880705871  CLST      52              1.0000000000
       260        52  DCM       CL2            -4.0223095095       -2.2323305324        0.3676894034  CLST      52              1.0000000000
       261        53  DCM       C              -3.0690250561        1.0549428187        0.9935762802  CLST      53              1.0000000000
       262        53  DCM       H1             -2.7820722168        0.2078286368        1.6519386052  CLST      53              1.0000000000
       263        53  DCM       H2             -2.6555449872        2.0144424055        1.3707528233  CLST      53              1.0000000000
       264        53  DCM       CL1            -2.4335021514        0.7538831799       -0.6483145023  CLST      53              1.0000000000
       265        53  DCM       CL2            -4.8516603131        1.1707450489        0.9372066131  CLST      53              1.0000000000
       266        54  DCM       C               2.8165886222       -0.4535699525        1.5512437985  CLST      54              1.0000000000
       267        54  DCM       H1              2.8111746472       -0.9480615356        2.5450804385  CLST      54              1.0000000000
       268        54  DCM       H2              2.5795896070       -1.1787158479        0.7433700681  CLST      54              1.0000000000
       269        54  DCM       CL1             1.5930680334        0.8502828471        1.5391101684  CLST      54              1.0000000000
       270        54  DCM       CL2             4.4388323787        0.2366518631        1.2555006537  CLST      54              1.0000000000
       271        55  DCM       C              -2.0824247751        1.9380838841        0.2339995302  CLST      55              1.0000000000
       272        55  DCM       H1             -1.4794302374        1.2539186426        0.8658169571  CLST      55              1.0000000000
       273        55  DCM       H2             -1.6058047221        2.0809555905       -0.7582286478  CLST      55              1.0000000000
       274        55  DCM       CL1            -3.7078881608        1.2339921939        0.0039979176  CLST      55              1.0000000000
       275        55  DCM       CL2            -2.2177747199        3.5190501939        1.0514707064  CLST      55              1.0000000000
       276        56  DCM       C              -0.4874146707       -2.1031530953       -1.0471111872  CLST      56              1.0000000000
       277        56  DCM       H1             -0.5177617418       -0.9974322483       -0.9577255939  CLST      56              1.0000000000
       278        56  DCM       H2             -0.3386822596       -2.4138272035       -2.1029119927  CLST      56              1.0000000000
       279        56  DCM       CL1             0.8633660037       -2.7247372640       -0.0588984201  CLST      56              1.0000000000
       280        56  DCM       CL2            -2.0307995949       -2.7788867070       -0.4518425522  CLST      56              1.0000000000
       281        57  DCM       C              -0.1254978499        2.8147940123       -1.2497092083  CLST      57              1.0000000000
       282        57  DCM       H1              0.0823074684        3.3938090863       -0.3250209092  CLST      57              1.0000000000
       283        57  DCM       H2             -1.1835377449        2.9368645055       -1.5652143180  CLST      57              1.0000000000
       284        57  DCM       CL1             0.9445876870        3.4032970806       -2.5556577793  CLST      57              1.0000000000
       285        57  DCM       CL2             0.1970177287        1.0843213214       -0.9385381894  CLST      57              1.0000000000
       286        58  DCM       C               2.0618365602        2.1451367140       -2.3194119746  CLST      58              1.0000000000
       287        58  DCM       H1              2.2629560236        1.6528669966       -3.2944128785  CLST      58              1.0000000000
       288        58  DCM       H2              2.7012477631        1.7206357553       -1.5167172239  CLST      58              1.0000000000
       289        58  DCM       CL1             2.4030702147        3.8937943132       -2.4702714071  CLST      58              1.0000000000
       290        58  DCM       CL2             0.3448492349        1.8968927542       -1.8865923205  CLST      58              1.0000000000
       291        59  DCM       C              -0.2979898392       -2.5509269758        0.2410925353  CLST      59              1.0000000000
       292        59  DCM       H1             -1.0422985738       -2.3655020480       -0.5617419770  CLST      59              1.0000000000
       293        59  DCM       H2             -0.3813916627       -1.7944244595        1.0478064465  CLST      59              1.0000000000
       294        59  DCM       CL1             1.3442343005       -2.4683460197       -0.4569662252  CLST      59              1.0000000000
       295        59  DCM       CL2            -0.5862263337       -4.1704482714        0.9369626836  CLST      59              1.0000000000
       296        60  DCM       C              -2.6027525227       -1.7296621361        1.0660252228  CLST      60              1.0000000000
       297        60  DCM       H1             -3.6394413549       -1.3578747857        0.9359456961  CLST      60              1.0000000000
       298        60  DCM       H2             -1.8604300922       -0.9467687854        0.7959206060  CLST      60              1.0000000000
       299        60  DCM       CL1            -2.3596628434       -2.1879498243        2.7763749474  CLST      60              1.0000000000
       300        60  DCM       CL2            -2.3548072339       -3.1530416361        0.0116272708  CLST      60              1.0000000000
       301        61  DCM       C              -1.8978743012        2.4329292667        1.1235053704  CLST      61              1.0000000000
       302        61  DCM       H1             -1.2753672939        3.2950111870        0.8033252730  CLST      61              1.0000000000
       303        61  DCM       H2             -1.3370426688        1.4784884178        1.0342891367  CLST      61              1.0000000000
       304        61  DCM       CL1            -2.3796096315        2.6659289746        2.8296415380  CLST      61              1.0000000000
       305        61  DCM       CL2            -3.3527916613        2.3504702951        0.0874282948  CLST      61              1.0000000000
       306        62  DCM       C               2.1357051868       -1.1195975797        0.0826326257  CLST      62              1.0000000000
       307        62  DCM       H1              2.4069889510       -1.5740856848       -0.8920952007  CLST      62              1.0000000000
       308        62  DCM       H2              2.0810828013       -1.8889778262        0.8821712311  CLST      62              1.0000000000
       309        62  DCM       CL1             3.3783464259        0.0861670374        0.5264096944  CLST      62              1.0000000000
       310        62  DCM       CL2             0.5435209832       -0.3235223271       -0.0750038345  CLST      62              1.0000000000
       311        63  DCM       C               1.8397307010        3.0613032725       -2.0503405618  CLST      63              1.0000000000
       312        63  DCM       H1              2.2379296320        4.0017310437       -1.6144279818  CLST      63              1.0000000000
       313        63  DCM       H2              2.1985246875        2.1773205684       -1.4833520289  CLST      63              1.0000000000
       314        63  DCM       CL1             0.0530687626        3.1010176887       -1.9938438252  CLST      63              1.0000000000
       315        63  DCM       CL2             2.3898992008        2.9229404282       -3.7456892304  CLST      63              1.0000000000
       316        64  DCM       C               1.3195261408        2.1887327283        1.9517340732  CLST      64              1.0000000000
       317        64  DCM       H1              0.9208438664        1.3825480051        1.3050672576  CLST      64              1.0000000000
       318        64  DCM       H2              2.3001726675        2.5456562838        1.5766181294  CLST      64              1.0000000000
       319        64  DCM       CL1             0.1585701943        3.5457102147        1.9577396182  CLST      64              1.0000000000
       320        64  DCM       CL2             1.5260758817        1.5596828244        3.6106532461  CLST      64              1.0000000000
       321        65  DCM       C              -0.0698847412       -2.0131020965        0.0467197000  CLST      65              1.0000000000
       322        65  DCM       H1             -1.1527343147       -2.2378007031        0.1388788386  CLST      65              1.0000000000
       323        65  DCM       H2              0.1448243641       -1.4407008454       -0.8807129501  CLST      65              1.0000000000
       324        65  DCM       CL1             0.4436129814       -1.0446952398        1.4584210865  CLST      65              1.0000000000
       325        65  DCM       CL2             0.8398411757       -3.5508705424        0.0031220498  CLST      65              1.0000000000
       326        66  DCM       C               1.7728864585       -2.3879154580       -2.4257787910  CLST      66              1.0000000000
       327        66  DCM       H1              0.7200083258       -2.0412480029       -2.3657298976  CLST      66              1.0000000000
       328        66  DCM       H2              2.4774987548       -1.5316170932       -2.3694067483  CLST      66              1.0000000000
       329        66  DCM       CL1             2.0980990298       -3.4997781240       -1.0657808400  CLST      66              1.0000000000
       330        66  DCM       CL2             2.0182226700       -3.2388569925       -3.9771250177  CLST      66              1.0000000000
       331        67  DCM       C              -3.0353924734       -0.9790561680        1.6058496858  CLST      67              1.0000000000
       332        67  DCM       H1             -3.4683396397       -1.3733682121        2.5490795665  CLST      67              1.0000000000
       333        67  DCM       H2             -1.9529976579       -1.2108976719        1.5415623281  CLST      67              1.0000000000
       334        67  DCM       CL1            -3.8669630155       -1.7328225892        0.2158920325  CLST      67              1.0000000000
       335        67  DCM       CL2            -3.2556676261        0.7942923413        1.5506249059  CLST      67              1.0000000000
       336        68  DCM       C              -0.9632043538       -1.7444620127       -3.1301576258  CLST      68              1.0000000000
       337        68  DCM       H1             -1.8677671326       -1.9255507515       -2.5118427032  CLST      68              1.0000000000
       338        68  DCM       H2             -0.4172778682       -2.6922182751       -3.3218318502  CLST      68              1.0000000000
       339        68  DCM       CL1            -1.4567532356       -1.0343443216       -4.6941467431  CLST      68              1.0000000000
       340        68  DCM       CL2             0.1179965249       -0.6133594401       -2.2649847977  CLST      68              1.0000000000
       341        69  DCM       C              -1.4651543891       -2.8484821564        0.3407440436  CLST      69              1.0000000000
       342        69  DCM       H1             -1.1839193267       -3.9130295958        0.4816269431  CLST      69              1.0000000000
       343        69  DCM       H2             -2.3867091362       -2.6014282826        0.9084799227  CLST      69              1.0000000000
       344        69  DCM       CL1            -0.1330840935       -1.8086347928        0.9155543669  CLST      69              1.0000000000
       345        69  DCM       CL2            -1.7538742560       -2.5498057415       -1.3958354630  CLST      69              1.0000000000
       346        70  DCM       C              -1.7573825408        0.5328636098        1.8866576425  CLST      70              1.0000000000
       347        70  DCM       H1             -2.2252016305        0.1451697052        0.9576604445  CLST      70              1.0000000000
       348        70  DCM       H2             -2.2231660857        1.4919534547        2.1970380690  CLST      70              1.0000000000
       349        70  DCM       CL1            -1.9741986214       -0.6693554597        3.1907827125  CLST      70              1.0000000000
       350        70  DCM       CL2            -0.0148640919        0.7998459759        1.5922076389  CLST      70              1.0000000000
       351        71  DCM       C               2.6585069928        2.8576392950       -0.1541177822  CLST      71              1.0000000000
       352        71  DCM       H1              3.2022953598        2.1227020307       -0.7841395280  CLST      71              1.0000000000
       353        71  DCM       H2              2.8159715824        2.6555728993        0.9262000920  CLST      71              1.0000000000
       354        71  DCM       CL1             3.2570867570        4.4982819367       -0.5331328155  CLST      71              1.0000000000
       355        71  DCM       CL2             0.9111105725        2.7484000622       -0.5123162970  CLST      71              1.0000000000
       356        72  DCM       C               2.6737414137        2.0909695978        2.6206995698  CLST      72              1.0000000000
       357        72  DCM       H1              3.0176764653        1.6496568626        3.5777949672  CLST      72              1.0000000000
       358        72  DCM       H2              3.1683554935        1.6008207309        1.7574028670  CLST      72              1.0000000000
       359        72  DCM       CL1             3.0731578618        3.8319124061        2.6035634514  CLST      72              1.0000000000
       360        72  DCM       CL2             0.9065972801        1.8668223660        2.4836240921  CLST      72              1.0000000000
       361        73  DCM       C               3.3297155184        0.5786162407       -1.5682023018  CLST      73              1.0000000000
       362        73  DCM       H1              3.6793432688        0.0036883696       -2.4518031163  CLST      73              1.0000000000
       363        73  DCM       H2              3.8146411837        0.2141827679       -0.6393163613  CLST      73              1.0000000000
       364        73  DCM       CL1             3.7432721398        2.3021560235       -1.7961714348  CLST      73              1.0000000000
       365        73  DCM       CL2             1.5582980745        0.3923198974       -1.4100505395  CLST      73              1.0000000000
       366        74  DCM       C              -1.3080169871        1.1606510818       -1.3618076686  CLST      74              1.0000000000
       367        74  DCM       H1             -0.8214539644        0.8117776465       -0.4267718611  CLST      74              1.0000000000
       368        74  DCM       H2             -2.2639226818        0.6251829632       -1.5384754133  CLST      74              1.0000000000
       369        74  DCM       CL1            -1.6405277592        2.9117670808       -1.2376901954  CLST      74              1.0000000000
       370        74  DCM       CL2            -0.2200146479        0.8473412339       -2.7423916258  CLST      74              1.0000000000
       371        75  DCM       C              -3.0538225904       -2.4175506565       -2.6871306371  CLST      75              1.0000000000
       372        75  DCM       H1             -3.6174737378       -2.3689379894       -1.7325383792  CLST      75              1.0000000000
       373        75  DCM       H2             -3.4679351439       -3.2000177062       -3.3577711977  CLST      75              1.0000000000
       374        75  DCM       CL1            -3.1400835223       -0.8321099966       -3.5075213436  CLST      75              1.0000000000
       375        75  DCM       CL2            -1.3562793350       -2.8139018368       -2.3172299537  CLST      75              1.0000000000
       376        76  DCM       C              -0.4938721495        2.9994365402        1.4008851727  CLST      76              1.0000000000
       377        76  DCM       H1              0.5140641447        2.5416323431        1.4757499495  CLST      76              1.0000000000
       378        76  DCM       H2             -1.2708027448        2.3213076911        1.8126968914  CLST      76              1.0000000000
       379        76  DCM       CL1            -0.5021354845        4.5295842784        2.3220292536  CLST      76              1.0000000000
       380        76  DCM       CL2            -0.8557557943        3.3255735117       -0.3182366200  CLST      76              1.0000000000
       381        77  DCM       C               1.2918686416        2.0174986519        2.5702303266  CLST      77              1.0000000000
       382        77  DCM       H1              1.7402938961        1.3255830951        1.8269288663  CLST      77              1.0000000000
       383        77  DCM       H2              0.2809095721        2.3488594688        2.2509752092  CLST      77              1.0000000000
       384        77  DCM       CL1             1.1621875305        1.1794442878        4.1418154638  CLST      77              1.0000000000
       385        77  DCM       CL2             2.3452928095        3.4484989544        2.7404609047  CLST      77              1.0000000000
       386        78  DCM       C              -0.0763054352        1.0158564341        2.9495125253  CLST      78              1.0000000000
       387        78  DCM       H1              0.6373024254        0.8764793009        3.7890540544  CLST      78              1.0000000000
       388        78  DCM       H2             -0.4713339435        2.0518314013        2.9239503693  CLST      78              1.0000000000
       389        78  DCM       CL1             0.7582605711        0.6939114601        1.4038519159  CLST      78              1.0000000000
       390        78  DCM       CL2            -1.4376072182       -0.1220001347        3.1549415807  CLST      78              1.0000000000
       391        79  DCM       C              -0.8513691985       -0.0327482342       -2.7781413474  CLST      79              1.0000000000
       392        79  DCM       H1             -0.7442547158       -0.1313278591       -3.8794027431  CLST      79              1.0000000000
       393        79  DCM       H2             -0.7621337433       -1.0194623827       -2.2782150216  CLST      79              1.0000000000
       394        79  DCM       CL1             0.4377916140        1.0414474614       -2.1668148247  CLST      79              1.0000000000
       395        79  DCM       CL2            -2.4537513481        0.6654117538       -2.4033594034  CLST      79              1.0000000000
       396        80  DCM       C              -1.6058798825        0.5678201047       -0.6358168846  CLST      80              1.0000000000
       397        80  DCM       H1             -1.7280811873        1.6610268680       -0.7789258276  CLST      80              1.0000000000
       398        80  DCM       H2             -2.1262207127        0.2271558475        0.2841450836  CLST      80              1.0000000000
       399        80  DCM       CL1            -2.2991209980       -0.2772977451       -2.0498155085  CLST      80              1.0000000000
       400        80  DCM       CL2             0.1355470736        0.1900783287       -0.4934740978  CLST      80              1.0000000000
       401        81  DCM       C              -2.0785999614        2.3744720692       -2.4721521942  CLST      81              1.0000000000
       402        81  DCM       H1             -1.2773620101        3.0334029860       -2.8689597067  CLST      81              1.0000000000
       403        81  DCM       H2             -1.9372088438        1.3269357488       -2.8109640738  CLST      81              1.0000000000
       404        81  DCM       CL1            -2.0340116000        2.4202258420       -0.6859699741  CLST      81              1.0000000000
       405        81  DCM       CL2            -3.6603440474        2.9652747491       -3.0565123011  CLST      81              1.0000000000
       406        82  DCM       C              -0.8667375092       -0.5562797963        0.4960227376  CLST      82              1.0000000000
       407        82  DCM       H1             -1.9280761427       -0.3876659589        0.2160067879  CLST      82              1.0000000000
       408        82  DCM       H2             -0.7653421389       -1.4435930615        1.1556076080  CLST      82              1.0000000000
       409        82  DCM       CL1             0.0891359596       -0.8327411440       -0.9877415515  CLST      82              1.0000000000
       410        82  DCM       CL2            -0.2520077781        0.8854453981        1.3580246234  CLST      82              1.0000000000
       411        83  DCM       C              -2.1807402810       -0.5923785765        0.9329281010  CLST      83              1.0000000000
       412        83  DCM       H1             -2.2731836895       -0.9577752446       -0.1119492574  CLST      83              1.0000000000
       413        83  DCM       H2             -2.4588838609       -1.3826341314        1.6594176770  CLST      83              1.0000000000
       414        83  DCM       CL1            -0.4912461027       -0.1024562608        1.2365672208  CLST      83              1.0000000000
       415        83  DCM       CL2            -3.2636105683        0.8098119800        1.1620410156  CLST      83              1.0000000000
       416        84  DCM       C              -2.6852025346       -0.4757518281        2.0059243728  CLST      84              1.0000000000
       417        84  DCM       H1             -2.6710410660        0.0268548116        1.0157597865  CLST      84              1.0000000000
       418        84  DCM       H2             -2.9097853462        0.2494417401        2.8159158831  CLST      84              1.0000000000
       419        84  DCM       CL1            -3.9484330340       -1.7394220482        1.9932581132  CLST      84              1.0000000000
       420        84  DCM       CL2            -1.0880077010       -1.2160361456        2.3142179855  CLST      84              1.0000000000
       421        85  DCM       C              -3.1440457487       -0.4116866679        0.0888315050  CLST      85              1.0000000000
       422        85  DCM       H1             -4.1813632982       -0.7852539815       -0.0424076713  CLST      85              1.0000000000
       423        85  DCM       H2             -3.1397910721        0.6029190656        0.5412727909  CLST      85              1.0000000000
       424        85  DCM       CL1            -2.2556606738       -1.5290338459        1.1651163406  CLST      85              1.0000000000
       425        85  DCM       CL2            -2.3439741348       -0.3401437364       -1.5091447488  CLST      85              1.0000000000
       426        86  DCM       C               1.9613292023       -0.1582981955        1.4816314464  CLST      86              1.0000000000
       427        86  DCM       H1              1.9048258888        0.5410921369        0.6216966680  CLST      86              1.0000000000
       428        86  DCM       H2              1.8465624642        0.3820094214        2.4449238989  CLST      86              1.0000000000
       429        86  DCM       CL1             0.6554546144       -1.3672205427        1.3285466073  CLST      86              1.0000000000
       430        86  DCM       CL2             3.5482965686       -0.9791698010        1.4611763026  CLST      86              1.0000000000
       431        87  DCM       C               1.0399502419       -1.0092524564        0.2084829510  CLST      87              1.0000000000
       432        87  DCM       H1              1.1992621435        0.0881076070        0.1442051328  CLST      87              1.0000000000
       433        87  DCM       H2              1.9078011619       -1.5642309833       -0.2058253980  CLST      87              1.0000000000
       434        87  DCM       CL1             0.8253029572       -1.4750827168        1.9205457175  CLST      87              1.0000000000
       435        87  DCM       CL2            -0.4227313613       -1.4388138022       -0.7238284445  CLST      87              1.0000000000
       436        88  DCM       C               0.4020927983        1.5508204758       -2.7955539692  CLST      88              1.0000000000
       437        88  DCM       H1              1.3245161815        1.1405960744       -2.3337932570  CLST      88              1.0000000000
       438        88  DCM       H2              0.6486898883        2.1917599931       -3.6688280634  CLST      88              1.0000000000
       439        88  DCM       CL1            -0.6249118445        0.1942106530       -3.3399764661  CLST      88              1.0000000000
       440        88  DCM       CL2            -0.4807651276        2.5270958591       -1.5837597831  CLST      88              1.0000000000
       441        89  DCM       C              -2.2325820387        1.0291470803       -2.8897043026  CLST      89              1.0000000000
       442        89  DCM       H1             -2.3056113785       -0.0292200167       -3.2125830789  CLST      89              1.0000000000
       443        89  DCM       H2             -3.1641523799        1.3491929854       -2.3788723223  CLST      89              1.0000000000
       444        89  DCM       CL1            -0.8604304514        1.2044401802       -1.7589334005  CLST      89              1.0000000000
       445        89  DCM       CL2            -1.9729913125        2.0614464966       -4.3250346341  CLST      89              1.0000000000
       446        90  DCM       C               2.7007109362        1.3252356834       -0.2647551928  CLST      90              1.0000000000
       447        90  DCM       H1              1.6528360790        1.5979697325       -0.0217890919  CLST      90              1.0000000000
       448        90  DCM       H2              3.4112640153        1.8016012234        0.4426016236  CLST      90              1.0000000000
       449        90  DCM       CL1             3.0808936920        1.8785504786       -1.9205981552  CLST      90              1.0000000000
       450        90  DCM       CL2             2.8841489663       -0.4493618713       -0.1592386510  CLST      90              1.0000000000
       451        91  DCM       C               0.1918893961       -2.0890999973        0.5177367928  CLST      91              1.0000000000
       452        91  DCM       H1             -0.2470319329       -1.0852098905        0.6897847237  CLST      91              1.0000000000
       453        91  DCM       H2             -0.4622325608       -2.8860255727        0.9303746613  CLST      91              1.0000000000
       454        91  DCM       CL1             0.3801478833       -2.3400853464       -1.2383337157  CLST      91              1.0000000000
       455        91  DCM       CL2             1.7890372274       -2.1797843919        1.3099837967  CLST      91              1.0000000000
       456        92  DCM       C              -0.2705642464        0.3819277158        1.8032898750  CLST      92              1.0000000000
       457        92  DCM       H1              0.6356560994       -0.1533936076        1.4458666743  CLST      92              1.0000000000
       458        92  DCM       H2             -0.1247067412        1.4820079619        1.7713273519  CLST      92              1.0000000000
       459        92  DCM       CL1            -1.6547863461       -0.0553166621        0.7604856078  CLST      92              1.0000000000
       460        92  DCM       CL2            -0.6042389357       -0.1088208022        3.4875604145  CLST      92              1.0000000000
       461        93  DCM       C               0.9402602050       -1.1461678546       -0.1992216577  CLST      93              1.0000000000
       462        93  DCM       H1              0.9693646528       -2.1451905035        0.2839804938  CLST      93              1.0000000000
       463        93  DCM       H2              0.8850068110       -1.2398134047       -1.3042554944  CLST      93              1.0000000000
       464        93  DCM       CL1            -0.4947120855       -0.2534598559        0.3808084927  CLST      93              1.0000000000
       465        93  DCM       CL2             2.4200730354       -0.2469291393        0.2350109940  CLST      93              1.0000000000
       466        94  DCM       C               0.2830760222        0.1946725462        0.6545819219  CLST      94              1.0000000000
       467        94  DCM       H1             -0.2918144753        0.6904721163       -0.1547685267  CLST      94              1.0000000000
       468        94  DCM       H2              0.4933656774       -0.8636050720        0.4005499722  CLST      94              1.0000000000
       469        94  DCM       CL1             1.8313067586        1.0557903102        0.8854315400  CLST      94              1.0000000000
       470        94  DCM       CL2            -0.6738610693        0.2432876149        2.1621033664  CLST      94              1.0000000000
       471        95  DCM       C              -2.7157814728        2.2546752453        2.6850407111  CLST      95              1.0000000000
       472        95  DCM       H1             -1.7875391379        2.0918610059        3.2703907899  CLST      95              1.0000000000
       473        95  DCM       H2             -2.4838523134        2.4949255823        1.6268605110  CLST      95              1.0000000000
       474        95  DCM       CL1            -3.7021724391        0.7678642050        2.7408922658  CLST      95              1.0000000000
       475        95  DCM       CL2            -3.6212222673        3.6116957921        3.4126344521  CLST      95              1.0000000000
